                  Welcome to Q-Chem
     A Quantum Leap Into The Future Of Chemistry


 Q-Chem 6.0 (devel), Q-Chem, Inc., Pleasanton, CA (2022)

 E. Epifanovsky,  A. T. B. Gilbert,  Xintian Feng,  Joonho Lee,  Yuezhi Mao,  
 N. Mardirossian,  P. Pokhilko,  A. White,  M. Wormit,  M. P. Coons,  
 A. L. Dempwolff,  Zhengting Gan,  D. Hait,  P. R. Horn,  L. D. Jacobson,  
 I. Kaliman,  J. Kussmann,  A. W. Lange,  Ka Un Lao,  D. S. Levine,  Jie Liu,  
 S. C. McKenzie,  A. F. Morrison,  K. Nanda,  F. Plasser,  D. R. Rehn,  
 M. L. Vidal,  Zhi-Qiang You,  Ying Zhu,  B. Alam,  B. Albrecht,  
 A. Aldossary,  E. Alguire,  J. H. Andersen,  V. Athavale,  D. Barton,  
 K. Begam,  A. Behn,  N. Bellonzi,  Y. A. Bernard,  E. J. Berquist,  
 H. Burton,  A. Carreras,  K. Carter-Fenk,  Romit Chakraborty,  
 Chandrima Chakravarty,  Junhan Chen,  A. D. Chien,  K. D. Closser,  
 V. Cofer-Shabica,  L. Cunha,  S. Dasgupta,  Jia Deng,  M. de Wergifosse,  
 M. Diedenhofen,  Hainam Do,  S. Ehlert,  Po-Tung Fang,  S. Fatehi,  
 Qingguo Feng,  T. Friedhoff,  B. Ganoe,  J. Gayvert,  Qinghui Ge,  
 G. Gidofalvi,  M. Goldey,  J. Gomes,  C. Gonzalez-Espinoza,  S. Gulania,  
 A. Gunina,  J. A. Gyamfi,  M. W. D. Hanson-Heine,  P. H. P. Harbach,  
 A. W. Hauser,  M. F. Herbst,  M. Hernandez Vera,  M. Hodecker,  
 Z. C. Holden,  S. Houck,  Xunkun Huang,  Kerwin Hui,  B. C. Huynh,  
 K. Ikeda,  M. Ivanov,  Hyunjun Ji,  Zuxin Jin,  Hanjie Jiang,  B. Kaduk,  
 S. Kaehler,  R. Kang,  K. Khistyaev,  Jaehoon Kim,  Yongbin Kim,  
 P. Klunzinger,  Z. Koczor-Benda,  Joong Hoon Koh,  D. Kosenkov,  
 Saikiran Kotaru,  L. Koulias,  T. Kowalczyk,  C. M. Krauter,  K. Kue,  
 A. Kunitsa,  T. Kus,  A. Landau,  K. V. Lawler,  D. Lefrancois,  S. Lehtola,  
 Rain Li,  Shaozhi Li,  Yi-Pei Li,  Jiashu Liang,  M. Liebenthal,  
 Hung-Hsuan Lin,  You-Sheng Lin,  Fenglai Liu,  Kuan-Yu Liu,  
 M. Loipersberger,  A. Luenser,  C. Malbon,  A. Manjanath,  P. Manohar,  
 E. Mansoor,  S. F. Manzer,  Shan-Ping Mao,  A. V. Marenich,  T. Markovich,  
 S. Mason,  F. Matz,  S. A. Maurer,  P. F. McLaughlin,  M. F. S. J. Menger,  
 J.-M. Mewes,  S. A. Mewes,  P. Morgante,  Mohammad Mostafanejad,  
 J. W. Mullinax,  K. J. Oosterbaan,  G. Paran,  V. Parravicini,  
 Alexander C. Paul,  Suranjan K. Paul,  F. Pavosevic,  Zheng Pei,  S. Prager,  
 E. I. Proynov,  E. Ramos,  B. Rana,  A. E. Rask,  A. Rettig,  R. M. Richard,  
 F. Rob,  E. Rossomme,  T. Scheele,  M. Scheurer,  M. Schneider,  
 P. E. Schneider,  N. Sergueev,  S. M. Sharada,  Hengyuan Shen,  
 W. Skomorowski,  D. W. Small,  C. J. Stein,  Yingli Su,  Yu-Chuan Su,  
 E. J. Sundstrom,  Zhen Tao,  J. Thirman,  Hung-Yi Tsai,  T. Tsuchimochi,  
 N. M. Tubman,  C. Utku,  S. P. Veccham,  O. Vydrov,  J. Wenzel,  
 Jonathan Wong,  J. Witte,  A. Yamada,  Chou-Hsun Yang,  Kun Yao,  
 S. Yeganeh,  S. R. Yost,  A. Zech,  F. Zeller,  Igor Ying Zhang,  
 Xing Zhang,  Yu Zhang,  D. Zuev,  A. Aspuru-Guzik,  A. T. Bell,  
 N. A. Besley,  K. B. Bravaya,  B. R. Brooks,  D. Casanova,  Jeng-Da Chai,  
 Hsing-Ta Chen,  S. Coriani,  C. J. Cramer,  A. E. DePrince, III,  
 R. A. DiStasio Jr.,  A. Dreuw,  B. D. Dunietz,  T. R. Furlani,  
 W. A. Goddard III,  S. Grimme,  S. Hammes-Schiffer,  T. Head-Gordon,  
 W. J. Hehre,  Chao-Ping Hsu,  T.-C. Jagau,  Yousung Jung,  A. Klamt,  
 Jing Kong,  D. S. Lambrecht,  Xiangyuan Li,  WanZhen Liang,  N. J. Mayhall,  
 C. W. McCurdy,  J. B. Neaton,  T. Neudecker,  C. Ochsenfeld,  
 J. A. Parkhill,  R. Peverati,  V. A. Rassolov,  Haisheng Ren,  Yihan Shao,  
 L. V. Slipchenko,  R. P. Steele,  J. E. Subotnik,  A. J. W. Thom,  
 A. Tkatchenko,  D. G. Truhlar,  T. Van Voorhis,  Fan Wang,  
 T. A. Wesolowski,  K. B. Whaley,  H. L. Woodcock III,  P. M. Zimmerman,  
 S. Faraji,  P. M. W. Gill,  M. Head-Gordon,  J. M. Herbert,  A. I. Krylov

 Contributors to earlier versions of Q-Chem not listed above: 
 R. D. Adamson,  B. Austin,  R. Baer,  J. Baker,  G. J. O. Beran,  
 K. Brandhorst,  S. T. Brown,  E. F. C. Byrd,  Arup K. Chakraborty,  
 G. K. L. Chan,  Chun-Min Chang,  Yunqing Chen,  C.-L. Cheng,  
 Siu Hung Chien,  D. M. Chipman,  D. L. Crittenden,  H. Dachsel,  
 R. J. Doerksen,  A. D. Dutoi,  R. G. Edgar,  J. Fosso-Tande,  
 L. Fusti-Molnar,  D. Ghosh,  A. Ghysels,  A. Golubeva-Zadorozhnaya,  
 J. Gonthier,  M. S. Gordon,  S. R. Gwaltney,  G. Hawkins,  J. E. Herr,  
 A. Heyden,  S. Hirata,  E. G. Hohenstein,  G. Kedziora,  F. J. Keil,  
 C. Kelley,  Jihan Kim,  R. A. King,  R. Z. Khaliullin,  P. P. Korambath,  
 W. Kurlancheek,  A. Laurent,  A. M. Lee,  M. S. Lee,  S. V. Levchenko,  
 Ching Yeh Lin,  D. Liotard,  E. Livshits,  R. C. Lochan,  I. Lotan,  
 L. A. Martinez-Martinez,  P. E. Maslen,  N. Nair,  D. P. O'Neill,  
 D. Neuhauser,  E. Neuscamman,  C. M. Oana,  R. Olivares-Amaya,  R. Olson,  
 T. M. Perrine,  B. Peters,  P. A. Pieniazek,  A. Prociuk,  Y. M. Rhee,  
 J. Ritchie,  M. A. Rohrdanz,  E. Rosta,  N. J. Russ,  H. F. Schaefer III,  
 M. W. Schmidt,  N. E. Schultz,  S. Sharma,  N. Shenvi,  C. D. Sherrill,  
 A. C. Simmonett,  A. Sodt,  T. Stein,  D. Stuck,  K. S. Thanthiriwatte,  
 V. Vanovschi,  L. Vogt,  Tao Wang,  A. Warshel,  M. A. Watson,  
 C. F. Williams,  Q. Wu,  X. Xu,  Jun Yang,  W. Zhang,  Yan Zhao

   Please cite Q-Chem as follows:
  "Software for the frontiers of quantum chemistry:
   An overview of developments in the Q-Chem 5 package"
   J. Chem. Phys. 155, 084801 (2021)
   https://doi.org/10.1063/5.0055522 (open access)

 Q-Chem 6.0.2 for Intel X86 EM64T Linux

 Parts of Q-Chem use Armadillo 9.900.5 (Nocturnal Misbehaviour).
 http://arma.sourceforge.net/

 Q-Chem begins on Tue Jan 17 15:01:07 2023  

orc21
 Host: 0

     Scratch files written to /scratch/wojcik/qchem27609//
 Processing $rem in /qcsoftware/qchem_latest/config/preferences:
 Processing $rem in /home/users/wojcik/.qchemrc:
 Core orbitals will be frozen

 Checking the input file for inconsistencies... 	...done.

--------------------------------------------------------------
User input:
--------------------------------------------------------------
$comment
Calcium diradical on an acetylen bridge Ca-CC-Ca.

Geometry: J. Phys. Chem. Lett. 2020, 11, 4, 1297--1304

molecule: charge = +2, multiplicity = 1
$end

$molecule
2 1
Ca 0.0000000000 0.0000000000 -1.1942571725
C  0.0000000000 0.0000000000  1.1148209748
C  0.0000000000 0.0000000000  2.3634057834
Ca 0.0000000000 0.0000000000  4.6730304143
$end

$rem
  method = eom-ccsd
  dea_singlets = [1, 0, 1, 1]
  dea_triplets = [1, 0, 1, 1]
  basis = 6-311G
  eom_nguess_doubles = 5
! state properties
  cc_eom_prop = true
! transition properties
  cc_trans_prop = 2
$end
--------------------------------------------------------------
 ----------------------------------------------------------------
             Standard Nuclear Orientation (Angstroms)
    I     Atom           X                Y                Z
 ----------------------------------------------------------------
    1      Ca      0.0000000000     0.0000000000    -2.9335807376
    2      C       0.0000000000     0.0000000000    -0.6245025903
    3      C       0.0000000000     0.0000000000     0.6240822183
    4      Ca      0.0000000000     0.0000000000     2.9337068492
 ----------------------------------------------------------------
 Molecular Point Group                 C2v   NOp =  4
 Largest Abelian Subgroup              C2v   NOp =  4
 Nuclear Repulsion Energy =         142.02447838 hartrees
 There are       25 alpha and       25 beta electrons
 Requested basis set is 6-311G
 There are 40 shells and 94 basis functions
 Total memory of 2000 MB is distributed as follows: 
   MEM_STATIC is set to 192 MB
   QALLOC/CCMAN JOB total memory use is  1808 MB
 Warning: actual memory use might exceed 2000 MB

 Total QAlloc Memory Limit   2000 MB
 Mega-Array Size       188 MB
 MEM_STATIC part       192 MB


                       Distance Matrix (Angstroms)
             Ca(  1)   C (  2)   C (  3)
   C (  2)  2.309078
   C (  3)  3.557663  1.248585
   Ca(  4)  5.867288  3.558209  2.309625

 A cutoff of  1.0D-14 yielded    660 shell pairs
 There are      3873 function pairs (      4025 Cartesian)
 Smallest overlap matrix eigenvalue = 1.34E-03

 Scale SEOQF with 1.000000e-01/1.000000e-01/1.000000e-01

 Standard Electronic Orientation quadrupole field applied
 Nucleus-field energy     =    -0.0000000374 hartrees
 Guess from superposition of atomic densities
 Warning:  Energy on first SCF cycle will be non-variational
 SAD guess density has 52.000000 electrons

 -----------------------------------------------------------------------
  General SCF calculation program by
  Eric Jon Sundstrom, Paul Horn, Yuezhi Mao, Dmitri Zuev, Alec White,
  David Stuck, Shaama M.S., Shane Yost, Joonho Lee, David Small,
  Daniel Levine, Susi Lehtola, Hugh Burton, Evgeny Epifanovsky,
  Bang C. Huynh
 -----------------------------------------------------------------------
 Hartree-Fock
 using 12 threads for integral computing
 -------------------------------------------------------
 OpenMP Integral computing Module                
 Release: version 1.0, May 2013, Q-Chem Inc. Pittsburgh 
 -------------------------------------------------------
 A restricted SCF calculation will be
 performed using DIIS
 SCF converges when DIIS error is below 1.0e-08
 ---------------------------------------
  Cycle       Energy         DIIS error
 ---------------------------------------
    1   -1429.5646389719      4.61e-02  
    2   -1428.6308931132      5.16e-03  
    3   -1428.6810857736      1.74e-03  
    4   -1428.6891377824      7.61e-04  
    5   -1428.6910668836      1.31e-04  
    6   -1428.6911664316      4.30e-05  
    7   -1428.6911755805      1.12e-05  
    8   -1428.6911761428      2.90e-06  
    9   -1428.6911761588      1.84e-06  
   10   -1428.6911761632      2.09e-07  
   11   -1428.6911761633      2.64e-08  
   12   -1428.6911761633      4.58e-09  Convergence criterion met
 ---------------------------------------
 SCF time:   CPU 9.18s  wall 2.00s 
 SCF   energy in the final basis set =    -1428.6911761633
 Total energy in the final basis set =    -1428.6911761633


 ------------------------------------------------------------------------------

   CCMAN2: suite of methods based on coupled cluster
           and equation of motion theories.

   Components:
   * libvmm-1.3-trunk
     by Evgeny Epifanovsky, Ilya Kaliman.
   * libtensor-2.5-trunk
     by Evgeny Epifanovsky, Michael Wormit, Dmitry Zuev, Sam Manzer, 
        Ilya Kaliman.
   * libcc-2.5-trunk
     by Evgeny Epifanovsky, Arik Landau, Tomasz Kus, Kirill Khistyaev, 
        Dmitry Zuev, Prashant Manohar, Xintian Feng, Anna Krylov, 
        Matthew Goldey, Alec White, Thomas Jagau, Kaushik Nanda, 
        Anastasia Gunina, Alexander Kunitsa, Joonho Lee.

   CCMAN original authors:
   Anna I. Krylov, C. David Sherrill, Steven R. Gwaltney,
   Edward F. C. Byrd (2000)
   Sergey V. Levchenko, Lyudmila V. Slipchenko, Tao Wang,
   Ana-Maria C. Cristian (2003)
   Piotr A. Pieniazek, C. Melania Oana, Evgeny Epifanovsky (2007)
   Prashant Manohar (2009)

 ------------------------------------------------------------------------------


 Allocating and initializing 1808MB of RAM...
 Calculation will run on 12 cores.


 Alpha MOs, Restricted
 -- Occupied --                  
-149.68 -149.68  -17.13  -17.13  -13.94  -13.94  -13.94  -13.94
  1 A1    2 A1    3 A1    4 A1    5 A1    6 A1    1 B1    1 B2                 
-13.943 -13.943 -11.380 -11.378  -2.555  -2.555  -1.657  -1.657
  2 B1    2 B2    7 A1    8 A1    9 A1   10 A1    3 B1    3 B2                 
 -1.657  -1.657  -1.653  -1.652  -1.158  -0.736  -0.632  -0.550
  4 B1    4 B2   11 A1   12 A1   13 A1   14 A1   15 A1    5 B1                 
 -0.550
  5 B2                                                                         
 -- Virtual --                   
 -0.265  -0.261  -0.190  -0.190  -0.181  -0.181  -0.144  -0.142
 16 A1   17 A1    6 B1    6 B2    7 B1    7 B2   18 A1   19 A1                 
 -0.104  -0.102  -0.090  -0.090  -0.090  -0.090  -0.060  -0.043
 20 A1   21 A1    8 B1    8 B2    9 B1    9 B2   22 A1   23 A1                 
  0.014   0.014   0.275   0.373   0.420   0.420   0.485   0.488
 10 B1   10 B2   24 A1   25 A1   11 B1   11 B2   26 A1   12 B1                 
  0.488   0.535   0.535   0.535   0.535   0.556   0.559   0.559
 12 B2   27 A1    1 A2   28 A1    2 A2   29 A1   13 B1   13 B2                 
  0.590   0.590   0.592   0.592   0.662   0.662   0.717   0.748
 14 B1   14 B2   15 B1   15 B2   16 B1   16 B2   30 A1   31 A1                 
  0.872   0.877   1.171   1.526   1.760   2.861   2.861   2.994
 32 A1   33 A1   34 A1   35 A1   36 A1   17 B1   17 B2   18 B1                 
  2.994   3.002   3.382   4.252   4.252   4.256   4.256   4.356
 18 B2   37 A1   38 A1   19 B1   19 B2   20 B1   20 B2   39 A1                 
  4.385  14.762  14.875  24.160  24.717 110.431 110.431 110.433
 40 A1   41 A1   42 A1   43 A1   44 A1   21 B1   21 B2   22 B1                 
110.433 110.502 110.531 321.232 321.348
 22 B2   45 A1   46 A1   47 A1   48 A1                                         

 Beta MOs, Restricted
 -- Occupied --                  
-149.68 -149.68  -17.13  -17.13  -13.94  -13.94  -13.94  -13.94
  1 A1    2 A1    3 A1    4 A1    5 A1    6 A1    1 B1    1 B2                 
-13.943 -13.943 -11.380 -11.378  -2.555  -2.555  -1.657  -1.657
  2 B1    2 B2    7 A1    8 A1    9 A1   10 A1    3 B1    3 B2                 
 -1.657  -1.657  -1.653  -1.652  -1.158  -0.736  -0.632  -0.550
  4 B1    4 B2   11 A1   12 A1   13 A1   14 A1   15 A1    5 B1                 
 -0.550
  5 B2                                                                         
 -- Virtual --                   
 -0.265  -0.261  -0.190  -0.190  -0.181  -0.181  -0.144  -0.142
 16 A1   17 A1    6 B1    6 B2    7 B1    7 B2   18 A1   19 A1                 
 -0.104  -0.102  -0.090  -0.090  -0.090  -0.090  -0.060  -0.043
 20 A1   21 A1    8 B1    8 B2    9 B1    9 B2   22 A1   23 A1                 
  0.014   0.014   0.275   0.373   0.420   0.420   0.485   0.488
 10 B1   10 B2   24 A1   25 A1   11 B1   11 B2   26 A1   12 B1                 
  0.488   0.535   0.535   0.535   0.535   0.556   0.559   0.559
 12 B2   27 A1    1 A2   28 A1    2 A2   29 A1   13 B1   13 B2                 
  0.590   0.590   0.592   0.592   0.662   0.662   0.717   0.748
 14 B1   14 B2   15 B1   15 B2   16 B1   16 B2   30 A1   31 A1                 
  0.872   0.877   1.171   1.526   1.760   2.861   2.861   2.994
 32 A1   33 A1   34 A1   35 A1   36 A1   17 B1   17 B2   18 B1                 
  2.994   3.002   3.382   4.252   4.252   4.256   4.256   4.356
 18 B2   37 A1   38 A1   19 B1   19 B2   20 B1   20 B2   39 A1                 
  4.385  14.762  14.875  24.160  24.717 110.431 110.431 110.433
 40 A1   41 A1   42 A1   43 A1   44 A1   21 B1   21 B2   22 B1                 
110.433 110.502 110.531 321.232 321.348
 22 B2   45 A1   46 A1   47 A1   48 A1                                         

 Occupation and symmetry of molecular orbitals

 Point group: C2v (4 irreducible representations).

                           A1   A2   B1   B2    All 
 ----------------------------------------------------
 All molecular orbitals:
  - Alpha                  48   2    22   22    94  
  - Beta                   48   2    22   22    94  
 ----------------------------------------------------
 Alpha orbitals:
  - Frozen occupied        12   0    4    4     20  
  - Active occupied        3    0    1    1     5   
  - Active virtual         33   2    17   17    69  
  - Frozen virtual         0    0    0    0     0   
 ----------------------------------------------------
 Beta orbitals:
  - Frozen occupied        12   0    4    4     20  
  - Active occupied        3    0    1    1     5   
  - Active virtual         33   2    17   17    69  
  - Frozen virtual         0    0    0    0     0   
 ----------------------------------------------------

 Import integrals:   CPU 0.00 s  wall 0.00 s

 Import integrals:   CPU 5.56 s  wall 0.83 s

 MP2 amplitudes:   CPU 0.59 s  wall 0.50 s

Running a double precision version
           CCSD T amplitudes will be solved using DIIS.

           Start     Size      MaxIter   EConv     TConv     
           3         7         100       1.00e-06  1.00e-04  
 ------------------------------------------------------------------------------
           Energy (a.u.)   Ediff      Tdiff       Comment
 ------------------------------------------------------------------------------
         -1428.88964978                           
     1   -1428.88049855   9.15e-03   5.21e-01     
     2   -1428.89013507   9.64e-03   7.32e-02     
     3   -1428.89080384   6.69e-04   2.85e-02     
     4   -1428.89248073   1.68e-03   1.31e-02     Switched to DIIS steps.
     5   -1428.89341455   9.34e-04   1.29e-02     
     6   -1428.89349589   8.13e-05   2.88e-03     
     7   -1428.89350384   7.95e-06   1.60e-03     
     8   -1428.89350618   2.34e-06   3.32e-04     
     9   -1428.89350704   8.53e-07   1.84e-04     
    10   -1428.89350695   8.28e-08   5.23e-05     
 ------------------------------------------------------------------------------
         -1428.89350695                           CCSD T converged.

End of double precision
 SCF energy                 = -1428.69117616
 MP2 energy                 = -1428.88964978
 CCSD correlation energy    =    -0.20233079
 CCSD total energy          = -1428.89350695

 CCSD  T1^2 = 0.0145  T2^2 = 0.1237  Leading amplitudes:

 Amplitude    Orbitals with energies
 -0.0573       15 (A1) A                 ->    17 (A1) A                  
              -0.6317                         -0.2614                     
 -0.0573       15 (A1) B                 ->    17 (A1) B                  
              -0.6317                         -0.2614                     
 -0.0318       15 (A1) A                 ->    19 (A1) A                  
              -0.6317                         -0.1420                     
 -0.0318       15 (A1) B                 ->    19 (A1) B                  
              -0.6317                         -0.1420                     

 Amplitude    Orbitals with energies
 -0.0851       5 (B2) A      5 (B2) B    ->    10 (B2) A     10 (B2) B    
              -0.5495       -0.5495            0.0144        0.0144       
  0.0851       5 (B2) A      5 (B2) B    ->    10 (B2) B     10 (B2) A    
              -0.5495       -0.5495            0.0144        0.0144       
  0.0851       5 (B2) B      5 (B2) A    ->    10 (B2) A     10 (B2) B    
              -0.5495       -0.5495            0.0144        0.0144       
 -0.0851       5 (B2) B      5 (B2) A    ->    10 (B2) B     10 (B2) A    
              -0.5495       -0.5495            0.0144        0.0144       
 -0.0851       5 (B1) A      5 (B1) B    ->    10 (B1) A     10 (B1) B    
              -0.5495       -0.5495            0.0144        0.0144       
  0.0851       5 (B1) A      5 (B1) B    ->    10 (B1) B     10 (B1) A    
              -0.5495       -0.5495            0.0144        0.0144       
  0.0851       5 (B1) B      5 (B1) A    ->    10 (B1) A     10 (B1) B    
              -0.5495       -0.5495            0.0144        0.0144       
 -0.0851       5 (B1) B      5 (B1) A    ->    10 (B1) B     10 (B1) A    
              -0.5495       -0.5495            0.0144        0.0144       

 Computing CCSD intermediates for later calculations in double precision
 Finished.

Running a double precision version
           CCSD Lambda amplitudes will be solved using DIIS.
           Start     Size      MaxIter   EConv     LConv     
           3         7         100       1.00e-06  1.00e-04  
 ------------------------------------------------------------------------------
            Enorm      Ldiff       Comment
 ------------------------------------------------------------------------------
     1     2.95e-02   1.85e-02     
     2     6.84e-03   3.56e-03     
     3     3.01e-03   1.19e-03     
     4     1.58e-03   8.66e-04     Switched to DIIS steps.
     5     6.85e-04   4.82e-04     
     6     2.35e-04   2.74e-04     
     7     9.05e-05   5.39e-05     
     8     2.59e-05   1.90e-05     
     9     9.28e-06   4.75e-06     
    10     3.84e-06   1.27e-06     
    11     1.48e-06   7.15e-07     
    12     5.13e-07   2.54e-07     
 ------------------------------------------------------------------------------
                                   CCSD Lambda converged.

 CCSD calculation:   CPU 79.86 s  wall 15.63 s

        Solving for EOMDEA-CCSD A1 transitions to singlet states

           EOMDEA-CCSD right amplitudes will be solved using Davidson.
        Amplitudes will be solved using standard  algorithm.
     Hard-coded thresholds: 
     LinDepThresh=1.00e-15  NormThresh=1.00e-06  ReorthogonThresh=1.00e-02

      Roots     MaxVec    MaxIter   Precond   Conv      Shift    
      1         120       60        1         1.00e-05  0.00e+00  
 ------------------------------------------------------------------------------
      Iter ConvRoots NVecs ResNorm^2 Current eigenvalues (eV)
 ------------------------------------------------------------------------------
      0    0      5     1.16e-02   -12.3608   
      1    0      6     2.06e-01   -12.4569   
      2    0      7     3.28e-04   -12.6372   
      3    0      8     9.02e-05   -12.6449   
      4    1      9     5.40e-06   -12.6455*  

     Davidson procedure converged

 EOMDEA-CCSD transition 1/A1
 Total energy = -1429.35822213 a.u.  Excitation energy = -12.6455 eV.
 R2^2 = 0.9868  R3^2 = 0.0132  Res^2 = 5.40e-06
 Conv-d = yes

 Amplitude    Transitions between orbitals
 -0.7318       infty       ->    16 (A1) A     16 (A1) B                  
  0.7318       infty       ->    16 (A1) B     16 (A1) A                  
  0.6665       infty       ->    17 (A1) A     17 (A1) B                  
 -0.6665       infty       ->    17 (A1) B     17 (A1) A                  

              Summary of significant orbitals:

               Number  Type             Irrep      Energy
               26      Vir  Alpha      16 (A1)     -0.2653
               27      Vir  Alpha      17 (A1)     -0.2614
               26      Vir  Beta       16 (A1)     -0.2653
               27      Vir  Beta       17 (A1)     -0.2614


           EOMDEA-CCSD left amplitudes will be solved using Davidson.
        Amplitudes will be solved using MOM  algorithm.
     Hard-coded thresholds: 
     LinDepThresh=1.00e-15  NormThresh=1.00e-06  ReorthogonThresh=1.00e-02

      Roots     MaxVec    MaxIter   Precond   Conv      Shift    
      1         120       60        1         1.00e-05  0.00e+00  
 ------------------------------------------------------------------------------
      Iter ConvRoots NVecs ResNorm^2 Current eigenvalues (eV)
 ------------------------------------------------------------------------------
      0    0      1     7.66e-04   -12.6455   
      1    0      2     1.04e-02   -12.6456   
      2    0      3     9.26e-05   -12.6457   
      3    1      4     3.05e-06   -12.6457*  

     Davidson procedure converged

 Excited state properties for  EOMDEA-CCSD/MP2 transition 1/A1
 Dipole moment (a.u.): 0.001251 (X 0.000000, Y 0.000000, Z 0.001251)
 R-squared (a.u.): 1366.103224 (XX 37.873195, YY 37.873195, ZZ 1290.356834)
 Gauge origin (a.u.): (0.000000, 0.000000, 0.000000)
 Angular momentum (a.u.) against gauge origin: 
 (X 0.000000i, Y 0.000000i, Z 0.000000i)
 Traces of the OPDMs: Tr(AA) 26.000000, Tr(BB) 26.000000

        Solving for EOMDEA-CCSD B1 transitions to singlet states

           EOMDEA-CCSD right amplitudes will be solved using Davidson.
        Amplitudes will be solved using standard  algorithm.
     Hard-coded thresholds: 
     LinDepThresh=1.00e-15  NormThresh=1.00e-06  ReorthogonThresh=1.00e-02

      Roots     MaxVec    MaxIter   Precond   Conv      Shift    
      1         120       60        1         1.00e-05  0.00e+00  
 ------------------------------------------------------------------------------
      Iter ConvRoots NVecs ResNorm^2 Current eigenvalues (eV)
 ------------------------------------------------------------------------------
      0    0      5     1.14e-02   -10.1442   
      1    0      6     1.85e-01   -10.2481   
      2    0      7     5.10e-04   -10.4376   
      3    0      8     2.39e-04   -10.4485   
      4    1      9     8.11e-06   -10.4490*  

     Davidson procedure converged

 EOMDEA-CCSD transition 1/B1
 Total energy = -1429.27750039 a.u.  Excitation energy = -10.4490 eV.
 R2^2 = 0.9825  R3^2 = 0.0175  Res^2 = 8.11e-06
 Conv-d = yes

 Amplitude    Transitions between orbitals
 -0.4957       infty       ->    16 (A1) A     7 (B1) B                   
 -0.4957       infty       ->    7 (B1) A      16 (A1) B                  
  0.4957       infty       ->    16 (A1) B     7 (B1) A                   
  0.4957       infty       ->    7 (B1) B      16 (A1) A                  
 -0.4925       infty       ->    17 (A1) A     6 (B1) B                   
 -0.4925       infty       ->    6 (B1) A      17 (A1) B                  
  0.4925       infty       ->    17 (A1) B     6 (B1) A                   
  0.4925       infty       ->    6 (B1) B      17 (A1) A                  

              Summary of significant orbitals:

               Number  Type             Irrep      Energy
               26      Vir  Alpha      16 (A1)     -0.2653
               27      Vir  Alpha      17 (A1)     -0.2614
               28      Vir  Alpha       6 (B1)     -0.1901
               30      Vir  Alpha       7 (B1)     -0.1807
               26      Vir  Beta       16 (A1)     -0.2653
               27      Vir  Beta       17 (A1)     -0.2614
               28      Vir  Beta        6 (B1)     -0.1901
               30      Vir  Beta        7 (B1)     -0.1807


           EOMDEA-CCSD left amplitudes will be solved using Davidson.
        Amplitudes will be solved using MOM  algorithm.
     Hard-coded thresholds: 
     LinDepThresh=1.00e-15  NormThresh=1.00e-06  ReorthogonThresh=1.00e-02

      Roots     MaxVec    MaxIter   Precond   Conv      Shift    
      1         120       60        1         1.00e-05  0.00e+00  
 ------------------------------------------------------------------------------
      Iter ConvRoots NVecs ResNorm^2 Current eigenvalues (eV)
 ------------------------------------------------------------------------------
      0    0      1     5.91e-04   -10.4490   
      1    0      2     1.92e-02   -10.4491   
      2    0      3     6.18e-05   -10.4492   
      3    1      4     8.56e-06   -10.4492*  

     Davidson procedure converged

 Excited state properties for  EOMDEA-CCSD/MP2 transition 1/B1
 Dipole moment (a.u.): 0.005468 (X 0.000000, Y 0.000000, Z -0.005468)
 R-squared (a.u.): 1361.635065 (XX 54.490722, YY 39.181638, ZZ 1267.962705)
 Gauge origin (a.u.): (0.000000, 0.000000, 0.000000)
 Angular momentum (a.u.) against gauge origin: 
 (X 0.000000i, Y 0.000000i, Z 0.000000i)
 Traces of the OPDMs: Tr(AA) 26.000000, Tr(BB) 26.000000

        Solving for EOMDEA-CCSD B2 transitions to singlet states

           EOMDEA-CCSD right amplitudes will be solved using Davidson.
        Amplitudes will be solved using standard  algorithm.
     Hard-coded thresholds: 
     LinDepThresh=1.00e-15  NormThresh=1.00e-06  ReorthogonThresh=1.00e-02

      Roots     MaxVec    MaxIter   Precond   Conv      Shift    
      1         120       60        1         1.00e-05  0.00e+00  
 ------------------------------------------------------------------------------
      Iter ConvRoots NVecs ResNorm^2 Current eigenvalues (eV)
 ------------------------------------------------------------------------------
      0    0      5     1.14e-02   -10.1442   
      1    0      6     1.85e-01   -10.2481   
      2    0      7     5.10e-04   -10.4376   
      3    0      8     2.39e-04   -10.4485   
      4    1      9     8.11e-06   -10.4490*  

     Davidson procedure converged

 EOMDEA-CCSD transition 1/B2
 Total energy = -1429.27750039 a.u.  Excitation energy = -10.4490 eV.
 R2^2 = 0.9825  R3^2 = 0.0175  Res^2 = 8.11e-06
 Conv-d = yes

 Amplitude    Transitions between orbitals
  0.4957       infty       ->    16 (A1) A     7 (B2) B                   
  0.4957       infty       ->    7 (B2) A      16 (A1) B                  
 -0.4957       infty       ->    16 (A1) B     7 (B2) A                   
 -0.4957       infty       ->    7 (B2) B      16 (A1) A                  
  0.4925       infty       ->    17 (A1) A     6 (B2) B                   
  0.4925       infty       ->    6 (B2) A      17 (A1) B                  
 -0.4925       infty       ->    17 (A1) B     6 (B2) A                   
 -0.4925       infty       ->    6 (B2) B      17 (A1) A                  

              Summary of significant orbitals:

               Number  Type             Irrep      Energy
               26      Vir  Alpha      16 (A1)     -0.2653
               27      Vir  Alpha      17 (A1)     -0.2614
               29      Vir  Alpha       6 (B2)     -0.1901
               31      Vir  Alpha       7 (B2)     -0.1807
               26      Vir  Beta       16 (A1)     -0.2653
               27      Vir  Beta       17 (A1)     -0.2614
               29      Vir  Beta        6 (B2)     -0.1901
               31      Vir  Beta        7 (B2)     -0.1807


           EOMDEA-CCSD left amplitudes will be solved using Davidson.
        Amplitudes will be solved using MOM  algorithm.
     Hard-coded thresholds: 
     LinDepThresh=1.00e-15  NormThresh=1.00e-06  ReorthogonThresh=1.00e-02

      Roots     MaxVec    MaxIter   Precond   Conv      Shift    
      1         120       60        1         1.00e-05  0.00e+00  
 ------------------------------------------------------------------------------
      Iter ConvRoots NVecs ResNorm^2 Current eigenvalues (eV)
 ------------------------------------------------------------------------------
      0    0      1     5.91e-04   -10.4490   
      1    0      2     1.92e-02   -10.4491   
      2    0      3     6.18e-05   -10.4492   
      3    1      4     8.56e-06   -10.4492*  

     Davidson procedure converged

 Excited state properties for  EOMDEA-CCSD/MP2 transition 1/B2
 Dipole moment (a.u.): 0.005473 (X 0.000000, Y 0.000000, Z -0.005473)
 R-squared (a.u.): 1361.645735 (XX 39.183774, YY 54.491435, ZZ 1267.970526)
 Gauge origin (a.u.): (0.000000, 0.000000, 0.000000)
 Angular momentum (a.u.) against gauge origin: 
 (X 0.000000i, Y 0.000000i, Z 0.000000i)
 Traces of the OPDMs: Tr(AA) 26.000000, Tr(BB) 26.000000

        Solving for EOMDEA-CCSD A1 transitions to triplet states

           EOMDEA-CCSD right amplitudes will be solved using Davidson.
        Amplitudes will be solved using standard  algorithm.
     Hard-coded thresholds: 
     LinDepThresh=1.00e-15  NormThresh=1.00e-06  ReorthogonThresh=1.00e-02

      Roots     MaxVec    MaxIter   Precond   Conv      Shift    
      1         120       60        1         1.00e-05  0.00e+00  
 ------------------------------------------------------------------------------
      Iter ConvRoots NVecs ResNorm^2 Current eigenvalues (eV)
 ------------------------------------------------------------------------------
      0    0      5     1.16e-02   -12.3531   
      1    0      6     2.09e-01   -12.4492   
      2    0      7     3.06e-04   -12.6313   
      3    0      8     9.63e-05   -12.6385   
      4    1      9     3.50e-06   -12.6391*  

     Davidson procedure converged

 EOMDEA-CCSD transition 1/A1
 Total energy = -1429.35798581 a.u.  Excitation energy = -12.6391 eV.
 R2^2 = 0.9871  R3^2 = 0.0129  Res^2 = 3.50e-06
 Conv-d = yes

 Amplitude    Transitions between orbitals
 -0.7001       infty       ->    16 (A1) A     17 (A1) B                  
  0.7001       infty       ->    17 (A1) A     16 (A1) B                  
  0.7001       infty       ->    17 (A1) B     16 (A1) A                  
 -0.7001       infty       ->    16 (A1) B     17 (A1) A                  

              Summary of significant orbitals:

               Number  Type             Irrep      Energy
               26      Vir  Alpha      16 (A1)     -0.2653
               27      Vir  Alpha      17 (A1)     -0.2614
               26      Vir  Beta       16 (A1)     -0.2653
               27      Vir  Beta       17 (A1)     -0.2614


           EOMDEA-CCSD left amplitudes will be solved using Davidson.
        Amplitudes will be solved using MOM  algorithm.
     Hard-coded thresholds: 
     LinDepThresh=1.00e-15  NormThresh=1.00e-06  ReorthogonThresh=1.00e-02

      Roots     MaxVec    MaxIter   Precond   Conv      Shift    
      1         120       60        1         1.00e-05  0.00e+00  
 ------------------------------------------------------------------------------
      Iter ConvRoots NVecs ResNorm^2 Current eigenvalues (eV)
 ------------------------------------------------------------------------------
      0    0      1     7.96e-04   -12.6391   
      1    0      2     2.55e-03   -12.6392   
      2    0      3     1.20e-05   -12.6392   
      3    1      4     1.84e-06   -12.6392*  

     Davidson procedure converged

 Excited state properties for  EOMDEA-CCSD/MP2 transition 1/A1
 Dipole moment (a.u.): 0.001263 (X 0.000000, Y 0.000000, Z 0.001263)
 R-squared (a.u.): 1366.246676 (XX 37.846351, YY 37.846351, ZZ 1290.553974)
 Gauge origin (a.u.): (0.000000, 0.000000, 0.000000)
 Angular momentum (a.u.) against gauge origin: 
 (X 0.000000i, Y 0.000000i, Z 0.000000i)
 Traces of the OPDMs: Tr(AA) 26.000000, Tr(BB) 26.000000

        Solving for EOMDEA-CCSD B1 transitions to triplet states

           EOMDEA-CCSD right amplitudes will be solved using Davidson.
        Amplitudes will be solved using standard  algorithm.
     Hard-coded thresholds: 
     LinDepThresh=1.00e-15  NormThresh=1.00e-06  ReorthogonThresh=1.00e-02

      Roots     MaxVec    MaxIter   Precond   Conv      Shift    
      1         120       60        1         1.00e-05  0.00e+00  
 ------------------------------------------------------------------------------
      Iter ConvRoots NVecs ResNorm^2 Current eigenvalues (eV)
 ------------------------------------------------------------------------------
      0    0      5     1.05e-02   -10.1863   
      1    0      6     1.84e-01   -10.2826   
      2    0      7     7.04e-04   -10.4661   
      3    0      8     1.90e-04   -10.4758   
      4    1      9     8.13e-06   -10.4765*  

     Davidson procedure converged

 EOMDEA-CCSD transition 1/B1
 Total energy = -1429.27851024 a.u.  Excitation energy = -10.4765 eV.
 R2^2 = 0.9810  R3^2 = 0.0190  Res^2 = 8.13e-06
 Conv-d = yes

 Amplitude    Transitions between orbitals
 -0.5512       infty       ->    16 (A1) A     6 (B1) B                   
  0.5512       infty       ->    6 (B1) A      16 (A1) B                  
 -0.5512       infty       ->    16 (A1) B     6 (B1) A                   
  0.5512       infty       ->    6 (B1) B      16 (A1) A                  
 -0.4282       infty       ->    17 (A1) A     7 (B1) B                   
  0.4282       infty       ->    7 (B1) A      17 (A1) B                  
 -0.4282       infty       ->    17 (A1) B     7 (B1) A                   
  0.4282       infty       ->    7 (B1) B      17 (A1) A                  

              Summary of significant orbitals:

               Number  Type             Irrep      Energy
               26      Vir  Alpha      16 (A1)     -0.2653
               27      Vir  Alpha      17 (A1)     -0.2614
               28      Vir  Alpha       6 (B1)     -0.1901
               30      Vir  Alpha       7 (B1)     -0.1807
               26      Vir  Beta       16 (A1)     -0.2653
               27      Vir  Beta       17 (A1)     -0.2614
               28      Vir  Beta        6 (B1)     -0.1901
               30      Vir  Beta        7 (B1)     -0.1807


           EOMDEA-CCSD left amplitudes will be solved using Davidson.
        Amplitudes will be solved using MOM  algorithm.
     Hard-coded thresholds: 
     LinDepThresh=1.00e-15  NormThresh=1.00e-06  ReorthogonThresh=1.00e-02

      Roots     MaxVec    MaxIter   Precond   Conv      Shift    
      1         120       60        1         1.00e-05  0.00e+00  
 ------------------------------------------------------------------------------
      Iter ConvRoots NVecs ResNorm^2 Current eigenvalues (eV)
 ------------------------------------------------------------------------------
      0    0      1     5.50e-04   -10.4765   
      1    0      2     4.40e-03   -10.4767   
      2    0      3     1.66e-05   -10.4768   
      3    1      4     6.16e-06   -10.4768*  

     Davidson procedure converged

 Excited state properties for  EOMDEA-CCSD/MP2 transition 1/B1
 Dipole moment (a.u.): 0.003226 (X 0.000000, Y 0.000000, Z -0.003226)
 R-squared (a.u.): 1361.866500 (XX 54.186231, YY 39.114231, ZZ 1268.566038)
 Gauge origin (a.u.): (0.000000, 0.000000, 0.000000)
 Angular momentum (a.u.) against gauge origin: 
 (X 0.000000i, Y 0.000000i, Z 0.000000i)
 Traces of the OPDMs: Tr(AA) 26.000000, Tr(BB) 26.000000

        Solving for EOMDEA-CCSD B2 transitions to triplet states

           EOMDEA-CCSD right amplitudes will be solved using Davidson.
        Amplitudes will be solved using standard  algorithm.
     Hard-coded thresholds: 
     LinDepThresh=1.00e-15  NormThresh=1.00e-06  ReorthogonThresh=1.00e-02

      Roots     MaxVec    MaxIter   Precond   Conv      Shift    
      1         120       60        1         1.00e-05  0.00e+00  
 ------------------------------------------------------------------------------
      Iter ConvRoots NVecs ResNorm^2 Current eigenvalues (eV)
 ------------------------------------------------------------------------------
      0    0      5     1.05e-02   -10.1863   
      1    0      6     1.84e-01   -10.2826   
      2    0      7     7.04e-04   -10.4661   
      3    0      8     1.90e-04   -10.4758   
      4    1      9     8.13e-06   -10.4765*  

     Davidson procedure converged

 EOMDEA-CCSD transition 1/B2
 Total energy = -1429.27851024 a.u.  Excitation energy = -10.4765 eV.
 R2^2 = 0.9810  R3^2 = 0.0190  Res^2 = 8.13e-06
 Conv-d = yes

 Amplitude    Transitions between orbitals
 -0.5512       infty       ->    16 (A1) A     6 (B2) B                   
  0.5512       infty       ->    6 (B2) A      16 (A1) B                  
 -0.5512       infty       ->    16 (A1) B     6 (B2) A                   
  0.5512       infty       ->    6 (B2) B      16 (A1) A                  
 -0.4282       infty       ->    17 (A1) A     7 (B2) B                   
  0.4282       infty       ->    7 (B2) A      17 (A1) B                  
 -0.4282       infty       ->    17 (A1) B     7 (B2) A                   
  0.4282       infty       ->    7 (B2) B      17 (A1) A                  

              Summary of significant orbitals:

               Number  Type             Irrep      Energy
               26      Vir  Alpha      16 (A1)     -0.2653
               27      Vir  Alpha      17 (A1)     -0.2614
               29      Vir  Alpha       6 (B2)     -0.1901
               31      Vir  Alpha       7 (B2)     -0.1807
               26      Vir  Beta       16 (A1)     -0.2653
               27      Vir  Beta       17 (A1)     -0.2614
               29      Vir  Beta        6 (B2)     -0.1901
               31      Vir  Beta        7 (B2)     -0.1807


           EOMDEA-CCSD left amplitudes will be solved using Davidson.
        Amplitudes will be solved using MOM  algorithm.
     Hard-coded thresholds: 
     LinDepThresh=1.00e-15  NormThresh=1.00e-06  ReorthogonThresh=1.00e-02

      Roots     MaxVec    MaxIter   Precond   Conv      Shift    
      1         120       60        1         1.00e-05  0.00e+00  
 ------------------------------------------------------------------------------
      Iter ConvRoots NVecs ResNorm^2 Current eigenvalues (eV)
 ------------------------------------------------------------------------------
      0    0      1     5.50e-04   -10.4765   
      1    0      2     4.40e-03   -10.4767   
      2    0      3     1.66e-05   -10.4768   
      3    1      4     6.16e-06   -10.4768*  

     Davidson procedure converged

 Excited state properties for  EOMDEA-CCSD/MP2 transition 1/B2
 Dipole moment (a.u.): 0.003229 (X 0.000000, Y 0.000000, Z -0.003229)
 R-squared (a.u.): 1361.877480 (XX 39.116400, YY 54.186954, ZZ 1268.574125)
 Gauge origin (a.u.): (0.000000, 0.000000, 0.000000)
 Angular momentum (a.u.) against gauge origin: 
 (X 0.000000i, Y 0.000000i, Z 0.000000i)
 Traces of the OPDMs: Tr(AA) 26.000000, Tr(BB) 26.000000

 EOMDEA-CCSD calculation:   CPU 227.16 s  wall 42.90 s


 Start computing the transition properties

 ------------------------------------------------------------------------------
 State A: eomdea_ccsd/rhfref/singlets: 1/A1
 State B: eomdea_ccsd/rhfref/singlets: 1/B1
 Energy GAP = 0.080722 a.u. = 2.196551 eV
 Transition dipole moment (a.u.):
   A->B: 0.005956 (X -0.005956, Y 0.000000, Z 0.000000)
   B->A: 0.005967 (X -0.005967, Y 0.000000, Z 0.000000)
 Oscillator strength (a.u.): 0.000002
 Transition angular momentum against gauge origin (a.u.):
   A->B:  (X 0.000000i, Y -1.919623i, Z 0.000000i)
   B->A:  (X 0.000000i, Y 1.934949i, Z 0.000000i)
 Norm of one-particle transition density matrix:
   A->B: 0.706971;   B->A: 0.702014
   ||gamma^AB||*||gamma^BA||: 0.496303

 ------------------------------------------------------------------------------
 State A: eomdea_ccsd/rhfref/singlets: 1/A1
 State B: eomdea_ccsd/rhfref/singlets: 1/B2
 Energy GAP = 0.080722 a.u. = 2.196551 eV
 Transition dipole moment (a.u.):
   A->B: 0.005956 (X 0.000000, Y -0.005956, Z 0.000000)
   B->A: 0.005967 (X 0.000000, Y -0.005967, Z 0.000000)
 Oscillator strength (a.u.): 0.000002
 Transition angular momentum against gauge origin (a.u.):
   A->B:  (X 1.919623i, Y 0.000000i, Z 0.000000i)
   B->A:  (X -1.934949i, Y 0.000000i, Z 0.000000i)
 Norm of one-particle transition density matrix:
   A->B: 0.706971;   B->A: 0.702014
   ||gamma^AB||*||gamma^BA||: 0.496303

 ------------------------------------------------------------------------------
 State A: eomdea_ccsd/rhfref/singlets: 1/B1
 State B: eomdea_ccsd/rhfref/singlets: 1/B2
 Energy GAP = 0.000000 a.u. = 0.000000 eV
 Transition dipole moment (a.u.):
   A->B: 0.000000 (X 0.000000, Y 0.000000, Z 0.000000)
   B->A: 0.000000 (X 0.000000, Y 0.000000, Z 0.000000)
 Oscillator strength (a.u.): 0.000000
 Transition angular momentum against gauge origin (a.u.):
   A->B:  (X 0.000000i, Y 0.000000i, Z 1.000000i)
   B->A:  (X 0.000000i, Y 0.000000i, Z -1.000000i)
 Norm of one-particle transition density matrix:
   A->B: 0.496975;   B->A: 0.496975
   ||gamma^AB||*||gamma^BA||: 0.246984

 ------------------------------------------------------------------------------
 State A: eomdea_ccsd/rhfref/singlets: 1/A1
 State B: eomdea_ccsd/rhfref/triplets: 1/A1
 Energy GAP = 0.000236 a.u. = 0.006431 eV
 Transition dipole moment (a.u.):
   A->B: 0.000000 (X 0.000000, Y 0.000000, Z 0.000000)
   B->A: 0.000000 (X 0.000000, Y 0.000000, Z 0.000000)
 Oscillator strength (a.u.): 0.000000
 Transition angular momentum against gauge origin (a.u.):
   A->B:  (X 0.000000i, Y 0.000000i, Z 0.000000i)
   B->A:  (X 0.000000i, Y 0.000000i, Z 0.000000i)
 Norm of one-particle transition density matrix:
   A->B: 0.995404;   B->A: 0.995585
   ||gamma^AB||*||gamma^BA||: 0.991010

 ------------------------------------------------------------------------------
 State A: eomdea_ccsd/rhfref/singlets: 1/A1
 State B: eomdea_ccsd/rhfref/triplets: 1/B1
 Energy GAP = 0.079712 a.u. = 2.169072 eV
 Transition dipole moment (a.u.):
   A->B: 0.000000 (X 0.000000, Y 0.000000, Z 0.000000)
   B->A: 0.000000 (X 0.000000, Y 0.000000, Z 0.000000)
 Oscillator strength (a.u.): 0.000000
 Transition angular momentum against gauge origin (a.u.):
   A->B:  (X 0.000000i, Y 0.000000i, Z 0.000000i)
   B->A:  (X 0.000000i, Y 0.000000i, Z 0.000000i)
 Norm of one-particle transition density matrix:
   A->B: 0.709380;   B->A: 0.709565
   ||gamma^AB||*||gamma^BA||: 0.503351

 ------------------------------------------------------------------------------
 State A: eomdea_ccsd/rhfref/singlets: 1/A1
 State B: eomdea_ccsd/rhfref/triplets: 1/B2
 Energy GAP = 0.079712 a.u. = 2.169072 eV
 Transition dipole moment (a.u.):
   A->B: 0.000000 (X 0.000000, Y 0.000000, Z 0.000000)
   B->A: 0.000000 (X 0.000000, Y 0.000000, Z 0.000000)
 Oscillator strength (a.u.): 0.000000
 Transition angular momentum against gauge origin (a.u.):
   A->B:  (X 0.000000i, Y 0.000000i, Z 0.000000i)
   B->A:  (X 0.000000i, Y 0.000000i, Z 0.000000i)
 Norm of one-particle transition density matrix:
   A->B: 0.709380;   B->A: 0.709565
   ||gamma^AB||*||gamma^BA||: 0.503351

 ------------------------------------------------------------------------------
 State A: eomdea_ccsd/rhfref/singlets: 1/B1
 State B: eomdea_ccsd/rhfref/triplets: 1/A1
 Energy GAP = 0.080485 a.u. = 2.190121 eV
 Transition dipole moment (a.u.):
   A->B: 0.000000 (X 0.000000, Y 0.000000, Z 0.000000)
   B->A: 0.000000 (X 0.000000, Y 0.000000, Z 0.000000)
 Oscillator strength (a.u.): 0.000000
 Transition angular momentum against gauge origin (a.u.):
   A->B:  (X 0.000000i, Y 0.000000i, Z 0.000000i)
   B->A:  (X 0.000000i, Y 0.000000i, Z 0.000000i)
 Norm of one-particle transition density matrix:
   A->B: 0.701350;   B->A: 0.702516
   ||gamma^AB||*||gamma^BA||: 0.492709

 ------------------------------------------------------------------------------
 State A: eomdea_ccsd/rhfref/singlets: 1/B1
 State B: eomdea_ccsd/rhfref/triplets: 1/B1
 Energy GAP = 0.001010 a.u. = 0.027479 eV
 Transition dipole moment (a.u.):
   A->B: 0.000000 (X 0.000000, Y 0.000000, Z 0.000000)
   B->A: 0.000000 (X 0.000000, Y 0.000000, Z 0.000000)
 Oscillator strength (a.u.): 0.000000
 Transition angular momentum against gauge origin (a.u.):
   A->B:  (X 0.000000i, Y 0.000000i, Z 0.000000i)
   B->A:  (X 0.000000i, Y 0.000000i, Z 0.000000i)
 Norm of one-particle transition density matrix:
   A->B: 0.703669;   B->A: 0.703558
   ||gamma^AB||*||gamma^BA||: 0.495072

 ------------------------------------------------------------------------------
 State A: eomdea_ccsd/rhfref/singlets: 1/B1
 State B: eomdea_ccsd/rhfref/triplets: 1/B2
 Energy GAP = 0.001010 a.u. = 0.027479 eV
 Transition dipole moment (a.u.):
   A->B: 0.000000 (X 0.000000, Y 0.000000, Z 0.000000)
   B->A: 0.000000 (X 0.000000, Y 0.000000, Z 0.000000)
 Oscillator strength (a.u.): 0.000000
 Transition angular momentum against gauge origin (a.u.):
   A->B:  (X 0.000000i, Y 0.000000i, Z 0.000000i)
   B->A:  (X 0.000000i, Y 0.000000i, Z 0.000000i)
 Norm of one-particle transition density matrix:
   A->B: 0.494918;   B->A: 0.495356
   ||gamma^AB||*||gamma^BA||: 0.245161

 ------------------------------------------------------------------------------
 State A: eomdea_ccsd/rhfref/singlets: 1/B2
 State B: eomdea_ccsd/rhfref/triplets: 1/A1
 Energy GAP = 0.080485 a.u. = 2.190121 eV
 Transition dipole moment (a.u.):
   A->B: 0.000000 (X 0.000000, Y 0.000000, Z 0.000000)
   B->A: 0.000000 (X 0.000000, Y 0.000000, Z 0.000000)
 Oscillator strength (a.u.): 0.000000
 Transition angular momentum against gauge origin (a.u.):
   A->B:  (X 0.000000i, Y 0.000000i, Z 0.000000i)
   B->A:  (X 0.000000i, Y 0.000000i, Z 0.000000i)
 Norm of one-particle transition density matrix:
   A->B: 0.701350;   B->A: 0.702516
   ||gamma^AB||*||gamma^BA||: 0.492709

 ------------------------------------------------------------------------------
 State A: eomdea_ccsd/rhfref/singlets: 1/B2
 State B: eomdea_ccsd/rhfref/triplets: 1/B1
 Energy GAP = 0.001010 a.u. = 0.027479 eV
 Transition dipole moment (a.u.):
   A->B: 0.000000 (X 0.000000, Y 0.000000, Z 0.000000)
   B->A: 0.000000 (X 0.000000, Y 0.000000, Z 0.000000)
 Oscillator strength (a.u.): 0.000000
 Transition angular momentum against gauge origin (a.u.):
   A->B:  (X 0.000000i, Y 0.000000i, Z 0.000000i)
   B->A:  (X 0.000000i, Y 0.000000i, Z 0.000000i)
 Norm of one-particle transition density matrix:
   A->B: 0.494918;   B->A: 0.495356
   ||gamma^AB||*||gamma^BA||: 0.245161

 ------------------------------------------------------------------------------
 State A: eomdea_ccsd/rhfref/singlets: 1/B2
 State B: eomdea_ccsd/rhfref/triplets: 1/B2
 Energy GAP = 0.001010 a.u. = 0.027479 eV
 Transition dipole moment (a.u.):
   A->B: 0.000000 (X 0.000000, Y 0.000000, Z 0.000000)
   B->A: 0.000000 (X 0.000000, Y 0.000000, Z 0.000000)
 Oscillator strength (a.u.): 0.000000
 Transition angular momentum against gauge origin (a.u.):
   A->B:  (X 0.000000i, Y 0.000000i, Z 0.000000i)
   B->A:  (X 0.000000i, Y 0.000000i, Z 0.000000i)
 Norm of one-particle transition density matrix:
   A->B: 0.703669;   B->A: 0.703558
   ||gamma^AB||*||gamma^BA||: 0.495072

 ------------------------------------------------------------------------------
 State A: eomdea_ccsd/rhfref/triplets: 1/A1
 State B: eomdea_ccsd/rhfref/triplets: 1/B1
 Energy GAP = 0.079476 a.u. = 2.162642 eV
 Transition dipole moment (a.u.):
   A->B: 0.003832 (X 0.003832, Y 0.000000, Z 0.000000)
   B->A: 0.003831 (X 0.003831, Y 0.000000, Z 0.000000)
 Oscillator strength (a.u.): 0.000001
 Transition angular momentum against gauge origin (a.u.):
   A->B:  (X 0.000000i, Y 1.900178i, Z 0.000000i)
   B->A:  (X 0.000000i, Y -1.920653i, Z 0.000000i)
 Norm of one-particle transition density matrix:
   A->B: 0.707241;   B->A: 0.701571
   ||gamma^AB||*||gamma^BA||: 0.496180

 ------------------------------------------------------------------------------
 State A: eomdea_ccsd/rhfref/triplets: 1/A1
 State B: eomdea_ccsd/rhfref/triplets: 1/B2
 Energy GAP = 0.079476 a.u. = 2.162642 eV
 Transition dipole moment (a.u.):
   A->B: 0.003832 (X 0.000000, Y -0.003832, Z 0.000000)
   B->A: 0.003831 (X 0.000000, Y -0.003831, Z 0.000000)
 Oscillator strength (a.u.): 0.000001
 Transition angular momentum against gauge origin (a.u.):
   A->B:  (X 1.900178i, Y 0.000000i, Z 0.000000i)
   B->A:  (X -1.920653i, Y 0.000000i, Z 0.000000i)
 Norm of one-particle transition density matrix:
   A->B: 0.707241;   B->A: 0.701571
   ||gamma^AB||*||gamma^BA||: 0.496180

 ------------------------------------------------------------------------------
 State A: eomdea_ccsd/rhfref/triplets: 1/B1
 State B: eomdea_ccsd/rhfref/triplets: 1/B2
 Energy GAP = 0.000000 a.u. = 0.000000 eV
 Transition dipole moment (a.u.):
   A->B: 0.000000 (X 0.000000, Y 0.000000, Z 0.000000)
   B->A: 0.000000 (X 0.000000, Y 0.000000, Z 0.000000)
 Oscillator strength (a.u.): 0.000000
 Transition angular momentum against gauge origin (a.u.):
   A->B:  (X 0.000000i, Y 0.000000i, Z -1.000000i)
   B->A:  (X 0.000000i, Y 0.000000i, Z 1.000000i)
 Norm of one-particle transition density matrix:
   A->B: 0.512447;   B->A: 0.512447
   ||gamma^AB||*||gamma^BA||: 0.262601


 All requested transition properties have been computed

 Transition Properties:   CPU 52.33 s  wall 11.44 s

 Total ccman2 time:   CPU 385.50 s  wall 75.03 s


 --------------------------------------------------------------
             Orbital Energies (a.u.) and Symmetries
 --------------------------------------------------------------

 Alpha MOs, Restricted
 -- Occupied --                  
-149.68 -149.68  -17.13  -17.13  -13.94  -13.94  -13.94  -13.94
  1 A1    2 A1    3 A1    4 A1    5 A1    6 A1    1 B1    1 B2                 
-13.943 -13.943 -11.380 -11.378  -2.555  -2.555  -1.657  -1.657
  2 B1    2 B2    7 A1    8 A1    9 A1   10 A1    3 B1    3 B2                 
 -1.657  -1.657  -1.653  -1.652  -1.158  -0.736  -0.632  -0.550
  4 B1    4 B2   11 A1   12 A1   13 A1   14 A1   15 A1    5 B1                 
 -0.550
  5 B2                                                                         
 -- Virtual --                   
 -0.265  -0.261  -0.190  -0.190  -0.181  -0.181  -0.144  -0.142
 16 A1   17 A1    6 B1    6 B2    7 B1    7 B2   18 A1   19 A1                 
 -0.104  -0.102  -0.090  -0.090  -0.090  -0.090  -0.060  -0.043
 20 A1   21 A1    8 B1    8 B2    9 B1    9 B2   22 A1   23 A1                 
  0.014   0.014   0.275   0.373   0.420   0.420   0.485   0.488
 10 B1   10 B2   24 A1   25 A1   11 B1   11 B2   26 A1   12 B1                 
  0.488   0.535   0.535   0.535   0.535   0.556   0.559   0.559
 12 B2   27 A1    1 A2   28 A1    2 A2   29 A1   13 B1   13 B2                 
  0.590   0.590   0.592   0.592   0.662   0.662   0.717   0.748
 14 B1   14 B2   15 B1   15 B2   16 B1   16 B2   30 A1   31 A1                 
  0.872   0.877   1.171   1.526   1.760   2.861   2.861   2.994
 32 A1   33 A1   34 A1   35 A1   36 A1   17 B1   17 B2   18 B1                 
  2.994   3.002   3.382   4.252   4.252   4.256   4.256   4.356
 18 B2   37 A1   38 A1   19 B1   19 B2   20 B1   20 B2   39 A1                 
  4.385  14.762  14.875  24.160  24.717 110.431 110.431 110.433
 40 A1   41 A1   42 A1   43 A1   44 A1   21 B1   21 B2   22 B1                 
110.433 110.502 110.531 321.232 321.348
 22 B2   45 A1   46 A1   47 A1   48 A1                                         

 Beta MOs, Restricted
 -- Occupied --                  
-149.68 -149.68  -17.13  -17.13  -13.94  -13.94  -13.94  -13.94
  1 A1    2 A1    3 A1    4 A1    5 A1    6 A1    1 B1    1 B2                 
-13.943 -13.943 -11.380 -11.378  -2.555  -2.555  -1.657  -1.657
  2 B1    2 B2    7 A1    8 A1    9 A1   10 A1    3 B1    3 B2                 
 -1.657  -1.657  -1.653  -1.652  -1.158  -0.736  -0.632  -0.550
  4 B1    4 B2   11 A1   12 A1   13 A1   14 A1   15 A1    5 B1                 
 -0.550
  5 B2                                                                         
 -- Virtual --                   
 -0.265  -0.261  -0.190  -0.190  -0.181  -0.181  -0.144  -0.142
 16 A1   17 A1    6 B1    6 B2    7 B1    7 B2   18 A1   19 A1                 
 -0.104  -0.102  -0.090  -0.090  -0.090  -0.090  -0.060  -0.043
 20 A1   21 A1    8 B1    8 B2    9 B1    9 B2   22 A1   23 A1                 
  0.014   0.014   0.275   0.373   0.420   0.420   0.485   0.488
 10 B1   10 B2   24 A1   25 A1   11 B1   11 B2   26 A1   12 B1                 
  0.488   0.535   0.535   0.535   0.535   0.556   0.559   0.559
 12 B2   27 A1    1 A2   28 A1    2 A2   29 A1   13 B1   13 B2                 
  0.590   0.590   0.592   0.592   0.662   0.662   0.717   0.748
 14 B1   14 B2   15 B1   15 B2   16 B1   16 B2   30 A1   31 A1                 
  0.872   0.877   1.171   1.526   1.760   2.861   2.861   2.994
 32 A1   33 A1   34 A1   35 A1   36 A1   17 B1   17 B2   18 B1                 
  2.994   3.002   3.382   4.252   4.252   4.256   4.256   4.356
 18 B2   37 A1   38 A1   19 B1   19 B2   20 B1   20 B2   39 A1                 
  4.385  14.762  14.875  24.160  24.717 110.431 110.431 110.433
 40 A1   41 A1   42 A1   43 A1   44 A1   21 B1   21 B2   22 B1                 
110.433 110.502 110.531 321.232 321.348
 22 B2   45 A1   46 A1   47 A1   48 A1                                         
 --------------------------------------------------------------

          Ground-State Mulliken Net Atomic Charges

     Atom                 Charge (a.u.)
  ----------------------------------------
      1 Ca                    1.894464
      2 C                    -0.894719
      3 C                    -0.894051
      4 Ca                    1.894307
  ----------------------------------------
  Sum of atomic charges =     2.000000

 -----------------------------------------------------------------
                    Cartesian Multipole Moments
 -----------------------------------------------------------------
    Charge (ESU x 10^10)
                 9.6064
    Dipole Moment (Debye)
         X      -0.0000      Y       0.0000      Z       0.0034
       Tot       0.0034
    Quadrupole Moments (Debye-Ang)
        XX     -32.4660     XY      -0.0000     YY     -32.4660
        XZ      -0.0000     YZ      -0.0000     ZZ     113.3216
    Octopole Moments (Debye-Ang^2)
       XXX      -0.0000    XXY      -0.0000    XYY      -0.0000
       YYY      -0.0000    XXZ       0.0028    XYZ      -0.0000
       YYZ       0.0028    XZZ      -0.0000    YZZ       0.0000
       ZZZ       0.0498
    Hexadecapole Moments (Debye-Ang^3)
      XXXX     -37.3357   XXXY       0.0000   XXYY     -12.4452
      XYYY       0.0000   YYYY     -37.3357   XXXZ      -0.0000
      XXYZ      -0.0000   XYYZ      -0.0000   YYYZ      -0.0000
      XXZZ    -150.1559   XYZZ      -0.0000   YYZZ    -150.1559
      XZZZ      -0.0000   YZZZ      -0.0000   ZZZZ     439.7366
 -----------------------------------------------------------------
 Total job time:  78.34s(wall), 397.63s(cpu) 
 Tue Jan 17 15:02:26 2023

        *************************************************************
        *                                                           *
        *  Thank you very much for using Q-Chem.  Have a nice day.  *
        *                                                           *
        *************************************************************


