                  Welcome to Q-Chem
     A Quantum Leap Into The Future Of Chemistry


 Q-Chem 6.0 (devel), Q-Chem, Inc., Pleasanton, CA (2022)

 E. Epifanovsky,  A. T. B. Gilbert,  Xintian Feng,  Joonho Lee,  Yuezhi Mao,  
 N. Mardirossian,  P. Pokhilko,  A. White,  M. Wormit,  M. P. Coons,  
 A. L. Dempwolff,  Zhengting Gan,  D. Hait,  P. R. Horn,  L. D. Jacobson,  
 I. Kaliman,  J. Kussmann,  A. W. Lange,  Ka Un Lao,  D. S. Levine,  Jie Liu,  
 S. C. McKenzie,  A. F. Morrison,  K. Nanda,  F. Plasser,  D. R. Rehn,  
 M. L. Vidal,  Zhi-Qiang You,  Ying Zhu,  B. Alam,  B. Albrecht,  
 A. Aldossary,  E. Alguire,  J. H. Andersen,  V. Athavale,  D. Barton,  
 K. Begam,  A. Behn,  N. Bellonzi,  Y. A. Bernard,  E. J. Berquist,  
 H. Burton,  A. Carreras,  K. Carter-Fenk,  Romit Chakraborty,  
 Chandrima Chakravarty,  Junhan Chen,  A. D. Chien,  K. D. Closser,  
 V. Cofer-Shabica,  L. Cunha,  S. Dasgupta,  Jia Deng,  M. de Wergifosse,  
 M. Diedenhofen,  Hainam Do,  S. Ehlert,  Po-Tung Fang,  S. Fatehi,  
 Qingguo Feng,  T. Friedhoff,  B. Ganoe,  J. Gayvert,  Qinghui Ge,  
 G. Gidofalvi,  M. Goldey,  J. Gomes,  C. Gonzalez-Espinoza,  S. Gulania,  
 A. Gunina,  J. A. Gyamfi,  M. W. D. Hanson-Heine,  P. H. P. Harbach,  
 A. W. Hauser,  M. F. Herbst,  M. Hernandez Vera,  M. Hodecker,  
 Z. C. Holden,  S. Houck,  Xunkun Huang,  Kerwin Hui,  B. C. Huynh,  
 K. Ikeda,  M. Ivanov,  Hyunjun Ji,  Zuxin Jin,  Hanjie Jiang,  B. Kaduk,  
 S. Kaehler,  R. Kang,  K. Khistyaev,  Jaehoon Kim,  Yongbin Kim,  
 P. Klunzinger,  Z. Koczor-Benda,  Joong Hoon Koh,  D. Kosenkov,  
 Saikiran Kotaru,  L. Koulias,  T. Kowalczyk,  C. M. Krauter,  K. Kue,  
 A. Kunitsa,  T. Kus,  A. Landau,  K. V. Lawler,  D. Lefrancois,  S. Lehtola,  
 Rain Li,  Shaozhi Li,  Yi-Pei Li,  Jiashu Liang,  M. Liebenthal,  
 Hung-Hsuan Lin,  You-Sheng Lin,  Fenglai Liu,  Kuan-Yu Liu,  
 M. Loipersberger,  A. Luenser,  C. Malbon,  A. Manjanath,  P. Manohar,  
 E. Mansoor,  S. F. Manzer,  Shan-Ping Mao,  A. V. Marenich,  T. Markovich,  
 S. Mason,  F. Matz,  S. A. Maurer,  P. F. McLaughlin,  M. F. S. J. Menger,  
 J.-M. Mewes,  S. A. Mewes,  P. Morgante,  Mohammad Mostafanejad,  
 J. W. Mullinax,  K. J. Oosterbaan,  G. Paran,  V. Parravicini,  
 Alexander C. Paul,  Suranjan K. Paul,  F. Pavosevic,  Zheng Pei,  S. Prager,  
 E. I. Proynov,  E. Ramos,  B. Rana,  A. E. Rask,  A. Rettig,  R. M. Richard,  
 F. Rob,  E. Rossomme,  T. Scheele,  M. Scheurer,  M. Schneider,  
 P. E. Schneider,  N. Sergueev,  S. M. Sharada,  Hengyuan Shen,  
 W. Skomorowski,  D. W. Small,  C. J. Stein,  Yingli Su,  Yu-Chuan Su,  
 E. J. Sundstrom,  Zhen Tao,  J. Thirman,  Hung-Yi Tsai,  T. Tsuchimochi,  
 N. M. Tubman,  C. Utku,  S. P. Veccham,  O. Vydrov,  J. Wenzel,  
 Jonathan Wong,  J. Witte,  A. Yamada,  Chou-Hsun Yang,  Kun Yao,  
 S. Yeganeh,  S. R. Yost,  A. Zech,  F. Zeller,  Igor Ying Zhang,  
 Xing Zhang,  Yu Zhang,  D. Zuev,  A. Aspuru-Guzik,  A. T. Bell,  
 N. A. Besley,  K. B. Bravaya,  B. R. Brooks,  D. Casanova,  Jeng-Da Chai,  
 Hsing-Ta Chen,  S. Coriani,  C. J. Cramer,  A. E. DePrince, III,  
 R. A. DiStasio Jr.,  A. Dreuw,  B. D. Dunietz,  T. R. Furlani,  
 W. A. Goddard III,  S. Grimme,  S. Hammes-Schiffer,  T. Head-Gordon,  
 W. J. Hehre,  Chao-Ping Hsu,  T.-C. Jagau,  Yousung Jung,  A. Klamt,  
 Jing Kong,  D. S. Lambrecht,  Xiangyuan Li,  WanZhen Liang,  N. J. Mayhall,  
 C. W. McCurdy,  J. B. Neaton,  T. Neudecker,  C. Ochsenfeld,  
 J. A. Parkhill,  R. Peverati,  V. A. Rassolov,  Haisheng Ren,  Yihan Shao,  
 L. V. Slipchenko,  R. P. Steele,  J. E. Subotnik,  A. J. W. Thom,  
 A. Tkatchenko,  D. G. Truhlar,  T. Van Voorhis,  Fan Wang,  
 T. A. Wesolowski,  K. B. Whaley,  H. L. Woodcock III,  P. M. Zimmerman,  
 S. Faraji,  P. M. W. Gill,  M. Head-Gordon,  J. M. Herbert,  A. I. Krylov

 Contributors to earlier versions of Q-Chem not listed above: 
 R. D. Adamson,  B. Austin,  R. Baer,  J. Baker,  G. J. O. Beran,  
 K. Brandhorst,  S. T. Brown,  E. F. C. Byrd,  Arup K. Chakraborty,  
 G. K. L. Chan,  Chun-Min Chang,  Yunqing Chen,  C.-L. Cheng,  
 Siu Hung Chien,  D. M. Chipman,  D. L. Crittenden,  H. Dachsel,  
 R. J. Doerksen,  A. D. Dutoi,  R. G. Edgar,  J. Fosso-Tande,  
 L. Fusti-Molnar,  D. Ghosh,  A. Ghysels,  A. Golubeva-Zadorozhnaya,  
 J. Gonthier,  M. S. Gordon,  S. R. Gwaltney,  G. Hawkins,  J. E. Herr,  
 A. Heyden,  S. Hirata,  E. G. Hohenstein,  G. Kedziora,  F. J. Keil,  
 C. Kelley,  Jihan Kim,  R. A. King,  R. Z. Khaliullin,  P. P. Korambath,  
 W. Kurlancheek,  A. Laurent,  A. M. Lee,  M. S. Lee,  S. V. Levchenko,  
 Ching Yeh Lin,  D. Liotard,  E. Livshits,  R. C. Lochan,  I. Lotan,  
 L. A. Martinez-Martinez,  P. E. Maslen,  N. Nair,  D. P. O'Neill,  
 D. Neuhauser,  E. Neuscamman,  C. M. Oana,  R. Olivares-Amaya,  R. Olson,  
 T. M. Perrine,  B. Peters,  P. A. Pieniazek,  A. Prociuk,  Y. M. Rhee,  
 J. Ritchie,  M. A. Rohrdanz,  E. Rosta,  N. J. Russ,  H. F. Schaefer III,  
 M. W. Schmidt,  N. E. Schultz,  S. Sharma,  N. Shenvi,  C. D. Sherrill,  
 A. C. Simmonett,  A. Sodt,  T. Stein,  D. Stuck,  K. S. Thanthiriwatte,  
 V. Vanovschi,  L. Vogt,  Tao Wang,  A. Warshel,  M. A. Watson,  
 C. F. Williams,  Q. Wu,  X. Xu,  Jun Yang,  W. Zhang,  Yan Zhao

   Please cite Q-Chem as follows:
  "Software for the frontiers of quantum chemistry:
   An overview of developments in the Q-Chem 5 package"
   J. Chem. Phys. 155, 084801 (2021)
   https://doi.org/10.1063/5.0055522 (open access)

 Q-Chem 6.0.2 for Intel X86 EM64T Linux

 Parts of Q-Chem use Armadillo 9.900.5 (Nocturnal Misbehaviour).
 http://arma.sourceforge.net/

 Q-Chem begins on Tue Jan 17 12:55:29 2023  

orc24
 Host: 0

     Scratch files written to /scratch/wojcik/qchem17884//
 Processing $rem in /qcsoftware/qchem_latest/config/preferences:
 Processing $rem in /home/users/wojcik/.qchemrc:
 Core orbitals will be frozen

 Checking the input file for inconsistencies... 	...done.

--------------------------------------------------------------
User input:
--------------------------------------------------------------
$comment
Calcium monohydoxide radical CaOH.

Geometry: J. Phys. Chem. A 2002, 106, 41, 9595--9599

molecule: charge = +1, multiplicity = 1
$end

$molecule
1 1
    Ca
    O Ca rCaO
    H O rOH Ca angle

    rCaO = 1.9778
    rOH = 0.9520
    angle = 180
$end

$rem
  method = eom-ccsd
  ea_states = [1, 0, 1, 1]
  basis = 6-311G
! state properties
  cc_eom_prop = true
  cc_eom_prop_te = true
! transition properties
  cc_trans_prop = 2
! Dyson orbitals
  cc_do_dyson = true
  print_general_basis = true
$end
--------------------------------------------------------------
 ----------------------------------------------------------------
             Standard Nuclear Orientation (Angstroms)
    I     Atom           X                Y                Z
 ----------------------------------------------------------------
    1      Ca      0.0000000000    -0.0000000000    -0.6466275862
    2      O       0.0000000000    -0.0000000000     1.3311724138
    3      H       0.0000000000     0.0000000000     2.2831724138
 ----------------------------------------------------------------
 Molecular Point Group                 C2v   NOp =  4
 Largest Abelian Subgroup              C2v   NOp =  4
 Nuclear Repulsion Energy =          50.86860580 hartrees
 There are       14 alpha and       14 beta electrons
 Requested basis set is 6-311G
 Basis set in general basis input format:
-----------------------------------------------------------------------
$basis
Ca   0
S    6    1.000000
   2.02699000E+05    2.22964000E-04 
   3.03825000E+04    1.72932000E-03 
   6.91508000E+03    9.00226000E-03 
   1.95902000E+03    3.66699000E-02 
   6.40936000E+02    1.19410000E-01 
   2.33977000E+02    2.91825000E-01 
S    2    1.000000
   9.22892000E+01    4.04415000E-01 
   3.72545000E+01    2.96313000E-01 
S    1    1.000000
   9.13198000E+00    1.00000000E+00 
S    1    1.000000
   3.81779000E+00    1.00000000E+00 
S    1    1.000000
   1.04935000E+00    1.00000000E+00 
S    1    1.000000
   4.28660000E-01    1.00000000E+00 
S    1    1.000000
   6.28226000E-02    1.00000000E+00 
S    1    1.000000
   2.60162000E-02    1.00000000E+00 
P    3    1.000000
   1.01976000E+03    2.05986000E-03 
   2.41596000E+02    1.66501000E-02 
   7.76370000E+01    7.77646000E-02 
P    3    1.000000
   2.91154000E+01    2.41806000E-01 
   1.17626000E+01    4.32578000E-01 
   4.92289000E+00    3.67325000E-01 
P    1    1.000000
   1.90645000E+00    1.00000000E+00 
P    1    1.000000
   7.36900000E-01    1.00000000E+00 
P    1    1.000000
   2.76420000E-01    1.00000000E+00 
P    1    1.000000
   6.02700000E-02    1.00000000E+00 
P    1    1.000000
   1.79100000E-02    1.00000000E+00 
D    3    1.000000
   1.50800000E+01    3.68947000E-02 
   3.92600000E+00    1.77820000E-01 
   1.23300000E+00    4.25513000E-01 
****
O    0
S    6    1.000000
   8.58850000E+03    1.89515000E-03 
   1.29723000E+03    1.43859000E-02 
   2.99296000E+02    7.07320000E-02 
   8.73771000E+01    2.40001000E-01 
   2.56789000E+01    5.94797000E-01 
   3.74004000E+00    2.80802000E-01 
SP   3    1.000000
   4.21175000E+01    1.13889000E-01   3.65114000E-02 
   9.62837000E+00    9.20811000E-01   2.37153000E-01 
   2.85332000E+00   -3.27447000E-03   8.19702000E-01 
SP   1    1.000000
   9.05661000E-01    1.00000000E+00   1.00000000E+00 
SP   1    1.000000
   2.55611000E-01    1.00000000E+00   1.00000000E+00 
****
H    0
S    3    1.000000
   3.38650000E+01    2.54938000E-02 
   5.09479000E+00    1.90373000E-01 
   1.15879000E+00    8.52161000E-01 
S    1    1.000000
   3.25840000E-01    1.00000000E+00 
S    1    1.000000
   1.02741000E-01    1.00000000E+00 
****
$end
-----------------------------------------------------------------------
 There are 23 shells and 50 basis functions
 Total memory of 2000 MB is distributed as follows: 
   MEM_STATIC is set to 192 MB
   QALLOC/CCMAN JOB total memory use is  1808 MB
 Warning: actual memory use might exceed 2000 MB

 Total QAlloc Memory Limit   2000 MB
 Mega-Array Size       188 MB
 MEM_STATIC part       192 MB


                       Distance Matrix (Angstroms)
             Ca(  1)   O (  2)
   O (  2)  1.977800
   H (  3)  2.929800  0.952000

 A cutoff of  1.0D-14 yielded    268 shell pairs
 There are      1308 function pairs (      1364 Cartesian)
 Smallest overlap matrix eigenvalue = 1.90E-02

 Scale SEOQF with 1.000000e-01/1.000000e-01/1.000000e-01

 Standard Electronic Orientation quadrupole field applied
 Nucleus-field energy     =    -0.0000000030 hartrees
 Guess from superposition of atomic densities
 Warning:  Energy on first SCF cycle will be non-variational
 SAD guess density has 29.000000 electrons

 -----------------------------------------------------------------------
  General SCF calculation program by
  Eric Jon Sundstrom, Paul Horn, Yuezhi Mao, Dmitri Zuev, Alec White,
  David Stuck, Shaama M.S., Shane Yost, Joonho Lee, David Small,
  Daniel Levine, Susi Lehtola, Hugh Burton, Evgeny Epifanovsky,
  Bang C. Huynh
 -----------------------------------------------------------------------
 Hartree-Fock
 using 12 threads for integral computing
 -------------------------------------------------------
 OpenMP Integral computing Module                
 Release: version 1.0, May 2013, Q-Chem Inc. Pittsburgh 
 -------------------------------------------------------
 A restricted SCF calculation will be
 performed using DIIS
 SCF converges when DIIS error is below 1.0e-08
 ---------------------------------------
  Cycle       Energy         DIIS error
 ---------------------------------------
    1    -752.1071182253      6.55e-02  
    2    -751.9356838465      1.88e-02  
    3    -751.9934227596      1.17e-02  
    4    -752.0211331585      5.20e-04  
    5    -752.0212654339      1.04e-04  
    6    -752.0212718983      2.75e-05  
    7    -752.0212725214      6.93e-06  
    8    -752.0212725613      1.16e-06  
    9    -752.0212725621      1.82e-07  
   10    -752.0212725621      4.35e-08  
   11    -752.0212725621      7.86e-09  Convergence criterion met
 ---------------------------------------
 SCF time:   CPU 2.25s  wall 1.00s 
 SCF   energy in the final basis set =     -752.0212725621
 Total energy in the final basis set =     -752.0212725621


 ------------------------------------------------------------------------------

   CCMAN2: suite of methods based on coupled cluster
           and equation of motion theories.

   Components:
   * libvmm-1.3-trunk
     by Evgeny Epifanovsky, Ilya Kaliman.
   * libtensor-2.5-trunk
     by Evgeny Epifanovsky, Michael Wormit, Dmitry Zuev, Sam Manzer, 
        Ilya Kaliman.
   * libcc-2.5-trunk
     by Evgeny Epifanovsky, Arik Landau, Tomasz Kus, Kirill Khistyaev, 
        Dmitry Zuev, Prashant Manohar, Xintian Feng, Anna Krylov, 
        Matthew Goldey, Alec White, Thomas Jagau, Kaushik Nanda, 
        Anastasia Gunina, Alexander Kunitsa, Joonho Lee.

   CCMAN original authors:
   Anna I. Krylov, C. David Sherrill, Steven R. Gwaltney,
   Edward F. C. Byrd (2000)
   Sergey V. Levchenko, Lyudmila V. Slipchenko, Tao Wang,
   Ana-Maria C. Cristian (2003)
   Piotr A. Pieniazek, C. Melania Oana, Evgeny Epifanovsky (2007)
   Prashant Manohar (2009)

 ------------------------------------------------------------------------------


 Allocating and initializing 1808MB of RAM...
 Calculation will run on 12 cores.


 Alpha MOs, Restricted
 -- Occupied --                  
-149.58  -20.58  -17.04  -13.85  -13.85  -13.85   -2.46   -1.58
  1 A1    2 A1    3 A1    4 A1    1 B1    1 B2    5 A1    6 A1                 
 -1.566  -1.566  -1.329  -0.722  -0.555  -0.555
  2 B1    2 B2    7 A1    8 A1    3 B1    3 B2                                 
 -- Virtual --                   
 -0.199  -0.108  -0.108  -0.076  -0.036  -0.018  -0.018   0.018
  9 A1    4 B1    4 B2   10 A1   11 A1    5 B1    5 B2   12 A1                 
  0.135   0.470   0.596   0.616   0.616   0.627   0.627   0.674
 13 A1   14 A1   15 A1    6 B1    6 B2    1 A2   16 A1    7 B1                 
  0.674   0.821   0.970   0.970   1.231   1.382   1.746   2.485
  7 B2   17 A1    8 B1    8 B2   18 A1   19 A1   20 A1   21 A1                 
  4.344   4.344   4.424   5.286   5.286   5.620  14.892  51.404
  9 B1    9 B2   22 A1   10 B1   10 B2   23 A1   24 A1   25 A1                 
110.526 110.526 110.587 321.364
 11 B1   11 B2   26 A1   27 A1                                                 

 Beta MOs, Restricted
 -- Occupied --                  
-149.58  -20.58  -17.04  -13.85  -13.85  -13.85   -2.46   -1.58
  1 A1    2 A1    3 A1    4 A1    1 B1    1 B2    5 A1    6 A1                 
 -1.566  -1.566  -1.329  -0.722  -0.555  -0.555
  2 B1    2 B2    7 A1    8 A1    3 B1    3 B2                                 
 -- Virtual --                   
 -0.199  -0.108  -0.108  -0.076  -0.036  -0.018  -0.018   0.018
  9 A1    4 B1    4 B2   10 A1   11 A1    5 B1    5 B2   12 A1                 
  0.135   0.470   0.596   0.616   0.616   0.627   0.627   0.674
 13 A1   14 A1   15 A1    6 B1    6 B2    1 A2   16 A1    7 B1                 
  0.674   0.821   0.970   0.970   1.231   1.382   1.746   2.485
  7 B2   17 A1    8 B1    8 B2   18 A1   19 A1   20 A1   21 A1                 
  4.344   4.344   4.424   5.286   5.286   5.620  14.892  51.404
  9 B1    9 B2   22 A1   10 B1   10 B2   23 A1   24 A1   25 A1                 
110.526 110.526 110.587 321.364
 11 B1   11 B2   26 A1   27 A1                                                 

 Occupation and symmetry of molecular orbitals

 Point group: C2v (4 irreducible representations).

                           A1   A2   B1   B2    All 
 ----------------------------------------------------
 All molecular orbitals:
  - Alpha                  27   1    11   11    50  
  - Beta                   27   1    11   11    50  
 ----------------------------------------------------
 Alpha orbitals:
  - Frozen occupied        6    0    2    2     10  
  - Active occupied        2    0    1    1     4   
  - Active virtual         19   1    8    8     36  
  - Frozen virtual         0    0    0    0     0   
 ----------------------------------------------------
 Beta orbitals:
  - Frozen occupied        6    0    2    2     10  
  - Active occupied        2    0    1    1     4   
  - Active virtual         19   1    8    8     36  
  - Frozen virtual         0    0    0    0     0   
 ----------------------------------------------------

 Import integrals:   CPU 0.00 s  wall 0.00 s

 Import integrals:   CPU 0.82 s  wall 0.20 s

 MP2 amplitudes:   CPU 0.25 s  wall 0.21 s

Running a double precision version
           CCSD T amplitudes will be solved using DIIS.

           Start     Size      MaxIter   EConv     TConv     
           3         7         100       1.00e-06  1.00e-04  
 ------------------------------------------------------------------------------
           Energy (a.u.)   Ediff      Tdiff       Comment
 ------------------------------------------------------------------------------
          -752.16257506                           
     1    -752.15750630   5.07e-03   3.28e-01     
     2    -752.16240476   4.90e-03   4.48e-02     
     3    -752.16264560   2.41e-04   2.01e-02     
     4    -752.16317267   5.27e-04   9.49e-03     Switched to DIIS steps.
     5    -752.16355399   3.81e-04   6.38e-03     
     6    -752.16357652   2.25e-05   1.43e-03     
     7    -752.16357103   5.49e-06   7.89e-04     
     8    -752.16356943   1.60e-06   2.55e-04     
     9    -752.16356922   2.14e-07   6.48e-05     
 ------------------------------------------------------------------------------
          -752.16356922                           CCSD T converged.

End of double precision
 SCF energy                 = -752.02127256
 MP2 energy                 = -752.16257506
 CCSD correlation energy    =   -0.14229666
 CCSD total energy          = -752.16356922

 CCSD  T1^2 = 0.0060  T2^2 = 0.0457  Leading amplitudes:

 Amplitude    Orbitals with energies
  0.0319       3 (B1) A                  ->    4 (B1) A                   
              -0.5554                         -0.1075                     
  0.0319       3 (B1) B                  ->    4 (B1) B                   
              -0.5554                         -0.1075                     
  0.0319       3 (B2) A                  ->    4 (B2) A                   
              -0.5554                         -0.1075                     
  0.0319       3 (B2) B                  ->    4 (B2) B                   
              -0.5554                         -0.1075                     

 Amplitude    Orbitals with energies
 -0.0462       3 (B2) A      3 (B2) B    ->    8 (B2) A      8 (B2) B     
              -0.5554       -0.5554            0.9697        0.9697       
  0.0462       3 (B2) A      3 (B2) B    ->    8 (B2) B      8 (B2) A     
              -0.5554       -0.5554            0.9697        0.9697       
  0.0462       3 (B2) B      3 (B2) A    ->    8 (B2) A      8 (B2) B     
              -0.5554       -0.5554            0.9697        0.9697       
 -0.0462       3 (B2) B      3 (B2) A    ->    8 (B2) B      8 (B2) A     
              -0.5554       -0.5554            0.9697        0.9697       
 -0.0462       3 (B1) A      3 (B1) B    ->    8 (B1) A      8 (B1) B     
              -0.5554       -0.5554            0.9697        0.9697       
  0.0462       3 (B1) A      3 (B1) B    ->    8 (B1) B      8 (B1) A     
              -0.5554       -0.5554            0.9697        0.9697       
  0.0462       3 (B1) B      3 (B1) A    ->    8 (B1) A      8 (B1) B     
              -0.5554       -0.5554            0.9697        0.9697       
 -0.0462       3 (B1) B      3 (B1) A    ->    8 (B1) B      8 (B1) A     
              -0.5554       -0.5554            0.9697        0.9697       

 Computing CCSD intermediates for later calculations in double precision
 Finished.

Running a double precision version
           CCSD Lambda amplitudes will be solved using DIIS.
           Start     Size      MaxIter   EConv     LConv     
           3         7         100       1.00e-06  1.00e-04  
 ------------------------------------------------------------------------------
            Enorm      Ldiff       Comment
 ------------------------------------------------------------------------------
     1     2.07e-02   1.18e-03     
     2     1.02e-02   5.02e-03     
     3     4.52e-03   2.55e-04     
     4     2.31e-03   7.75e-04     Switched to DIIS steps.
     5     5.70e-04   6.50e-04     
     6     1.92e-04   1.24e-04     
     7     6.80e-05   1.29e-05     
     8     1.87e-05   1.73e-06     
     9     6.68e-06   1.37e-08     
    10     2.80e-06   2.12e-07     
    11     7.62e-07   1.31e-08     
 ------------------------------------------------------------------------------
                                   CCSD Lambda converged.

 CCSD calculation:   CPU 27.10 s  wall 6.10 s

        Solving for EOMEA-CCSD/MP2 A1 transitions.

Running a double precision version
      EOMEA-CCSD/MP2 right amplitudes will be solved using Davidson.
        Amplitudes will be solved using standard  algorithm.
     Hard-coded thresholds: 
     LinDepThresh=1.00e-15  NormThresh=1.00e-06  ReorthogonThresh=1.00e-02

      Roots     MaxVec    MaxIter   Precond   Conv      Shift    
      1         120       60        1         1.00e-05  0.00e+00  
 ------------------------------------------------------------------------------
      Iter ConvRoots NVecs ResNorm^2 Current eigenvalues (eV)
 ------------------------------------------------------------------------------
      0    0      1     5.09e-03   -5.3685   
      1    0      2     9.66e-02   -5.3947   
      2    0      3     1.65e-03   -5.4702   
      3    0      4     2.39e-05   -5.4727   
      4    1      5     7.12e-07   -5.4730*  

     Davidson procedure converged

 EOMEA transition 1/A1
 Total energy = -752.36469715 a.u.  Excitation energy = -5.4730 eV.
 R1^2 = 0.9950  R2^2 = 0.0050  Res^2 = 7.12e-07
 Conv-d = yes

 Amplitude    Transitions between orbitals
 -0.9974       infty       ->    9 (A1) B                   
  0.0109       infty       ->    10 (A1) B                  
 -0.0046       infty       ->    12 (A1) B                  
 -0.0045       infty       ->    11 (A1) B                  

              Summary of significant orbitals:

               Number  Type             Irrep      Energy
               15      Vir  Beta        9 (A1)     -0.1986
               18      Vir  Beta       10 (A1)     -0.0765
               19      Vir  Beta       11 (A1)     -0.0357
               22      Vir  Beta       12 (A1)      0.0178


Running a double precision version
      EOMEA-CCSD/MP2 left amplitudes will be solved using Davidson.
        Amplitudes will be solved using MOM  algorithm.
     Hard-coded thresholds: 
     LinDepThresh=1.00e-15  NormThresh=1.00e-06  ReorthogonThresh=1.00e-02

      Roots     MaxVec    MaxIter   Precond   Conv      Shift    
      1         120       60        1         1.00e-05  0.00e+00  
 ------------------------------------------------------------------------------
      Iter ConvRoots NVecs ResNorm^2 Current eigenvalues (eV)
 ------------------------------------------------------------------------------
      0    0      1     1.64e-04   -5.4730   
      1    0      2     1.06e-03   -5.4730   
      2    1      3     5.36e-06   -5.4729*  

     Davidson procedure converged

 EOMEA-CCSD/MP2 transition 1/A1
S^2 calculation will be performed in  double precision
 Excited state properties for  EOMEA-CCSD transition 1/A1
 Dipole moment (a.u.): 0.260699 (X 0.000000, Y 0.000000, Z -0.260699)
 R-squared (a.u.): 159.529801 (XX 18.484751, YY 18.484751, ZZ 122.560298)
 Gauge origin (a.u.): (0.000000, 0.000000, 0.000000)
 Angular momentum (a.u.) against gauge origin: 
 (X 0.000000i, Y 0.000000i, Z 0.000000i)
 Traces of the OPDMs: Tr(AA) 14.000000, Tr(BB) 15.000000
 <S^2> = 0.750000

        Solving for EOMEA-CCSD/MP2 B1 transitions.

Running a double precision version
      EOMEA-CCSD/MP2 right amplitudes will be solved using Davidson.
        Amplitudes will be solved using standard  algorithm.
     Hard-coded thresholds: 
     LinDepThresh=1.00e-15  NormThresh=1.00e-06  ReorthogonThresh=1.00e-02

      Roots     MaxVec    MaxIter   Precond   Conv      Shift    
      1         120       60        1         1.00e-05  0.00e+00  
 ------------------------------------------------------------------------------
      Iter ConvRoots NVecs ResNorm^2 Current eigenvalues (eV)
 ------------------------------------------------------------------------------
      0    0      1     5.39e-03   -2.8591   
      1    0      2     2.46e-02   -2.8871   
      2    0      3     1.21e-03   -2.9347   
      3    0      4     2.15e-05   -2.9371   
      4    1      5     3.20e-06   -2.9376*  

     Davidson procedure converged

 EOMEA transition 1/B1
 Total energy = -752.27152489 a.u.  Excitation energy = -2.9376 eV.
 R1^2 = 0.9962  R2^2 = 0.0038  Res^2 = 3.20e-06
 Conv-d = yes

 Amplitude    Transitions between orbitals
 -0.9981       infty       ->    4 (B1) B                   
  0.0068       infty       ->    5 (B1) B                   
  0.0019       infty       ->    8 (B1) B                   
 -0.0014       infty       ->    7 (B1) B                   

              Summary of significant orbitals:

               Number  Type             Irrep      Energy
               16      Vir  Beta        4 (B1)     -0.1075
               20      Vir  Beta        5 (B1)     -0.0175
               30      Vir  Beta        7 (B1)      0.6741
               33      Vir  Beta        8 (B1)      0.9697


Running a double precision version
      EOMEA-CCSD/MP2 left amplitudes will be solved using Davidson.
        Amplitudes will be solved using MOM  algorithm.
     Hard-coded thresholds: 
     LinDepThresh=1.00e-15  NormThresh=1.00e-06  ReorthogonThresh=1.00e-02

      Roots     MaxVec    MaxIter   Precond   Conv      Shift    
      1         120       60        1         1.00e-05  0.00e+00  
 ------------------------------------------------------------------------------
      Iter ConvRoots NVecs ResNorm^2 Current eigenvalues (eV)
 ------------------------------------------------------------------------------
      0    0      1     4.49e-04   -2.9376   
      1    0      2     1.26e-03   -2.9376   
      2    1      3     8.45e-06   -2.9376*  

     Davidson procedure converged

 EOMEA-CCSD/MP2 transition 1/B1
S^2 calculation will be performed in  double precision
 Excited state properties for  EOMEA-CCSD transition 1/B1
 Dipole moment (a.u.): 2.175438 (X 0.000000, Y 0.000000, Z -2.175438)
 R-squared (a.u.): 175.698570 (XX 38.038432, YY 20.507539, ZZ 117.152599)
 Gauge origin (a.u.): (0.000000, 0.000000, 0.000000)
 Angular momentum (a.u.) against gauge origin: 
 (X 0.000000i, Y 0.000000i, Z 0.000000i)
 Traces of the OPDMs: Tr(AA) 14.000000, Tr(BB) 15.000000
 <S^2> = 0.750000

        Solving for EOMEA-CCSD/MP2 B2 transitions.

Running a double precision version
      EOMEA-CCSD/MP2 right amplitudes will be solved using Davidson.
        Amplitudes will be solved using standard  algorithm.
     Hard-coded thresholds: 
     LinDepThresh=1.00e-15  NormThresh=1.00e-06  ReorthogonThresh=1.00e-02

      Roots     MaxVec    MaxIter   Precond   Conv      Shift    
      1         120       60        1         1.00e-05  0.00e+00  
 ------------------------------------------------------------------------------
      Iter ConvRoots NVecs ResNorm^2 Current eigenvalues (eV)
 ------------------------------------------------------------------------------
      0    0      1     5.39e-03   -2.8591   
      1    0      2     2.46e-02   -2.8871   
      2    0      3     1.21e-03   -2.9347   
      3    0      4     2.15e-05   -2.9371   
      4    1      5     3.20e-06   -2.9376*  

     Davidson procedure converged

 EOMEA transition 1/B2
 Total energy = -752.27152490 a.u.  Excitation energy = -2.9376 eV.
 R1^2 = 0.9962  R2^2 = 0.0038  Res^2 = 3.20e-06
 Conv-d = yes

 Amplitude    Transitions between orbitals
 -0.9981       infty       ->    4 (B2) B                   
  0.0068       infty       ->    5 (B2) B                   
 -0.0019       infty       ->    8 (B2) B                   
  0.0014       infty       ->    7 (B2) B                   

              Summary of significant orbitals:

               Number  Type             Irrep      Energy
               17      Vir  Beta        4 (B2)     -0.1075
               21      Vir  Beta        5 (B2)     -0.0175
               31      Vir  Beta        7 (B2)      0.6741
               34      Vir  Beta        8 (B2)      0.9697


Running a double precision version
      EOMEA-CCSD/MP2 left amplitudes will be solved using Davidson.
        Amplitudes will be solved using MOM  algorithm.
     Hard-coded thresholds: 
     LinDepThresh=1.00e-15  NormThresh=1.00e-06  ReorthogonThresh=1.00e-02

      Roots     MaxVec    MaxIter   Precond   Conv      Shift    
      1         120       60        1         1.00e-05  0.00e+00  
 ------------------------------------------------------------------------------
      Iter ConvRoots NVecs ResNorm^2 Current eigenvalues (eV)
 ------------------------------------------------------------------------------
      0    0      1     4.49e-04   -2.9376   
      1    0      2     1.26e-03   -2.9376   
      2    1      3     8.45e-06   -2.9376*  

     Davidson procedure converged

 EOMEA-CCSD/MP2 transition 1/B2
S^2 calculation will be performed in  double precision
 Excited state properties for  EOMEA-CCSD transition 1/B2
 Dipole moment (a.u.): 2.175438 (X 0.000000, Y 0.000000, Z -2.175438)
 R-squared (a.u.): 175.698570 (XX 20.507539, YY 38.038432, ZZ 117.152599)
 Gauge origin (a.u.): (0.000000, 0.000000, 0.000000)
 Angular momentum (a.u.) against gauge origin: 
 (X 0.000000i, Y 0.000000i, Z 0.000000i)
 Traces of the OPDMs: Tr(AA) 14.000000, Tr(BB) 15.000000
 <S^2> = 0.750000

 EOMEA-CCSD calculation:   CPU 15.37 s  wall 3.93 s


 Start computing the transition properties

 ------------------------------------------------------------------------------
 State A: eomea_ccsd/b: 1/A1
 State B: ccsd: 0/A1

       ***    Dyson orbital calculation   *** 

 EOM-EA-CCSD state  1/A1 -- Reference  transition
 Energy difference = -5.4730 eV.

 Left Dyson orbital norm is 0.9964

Left beta Dyson orbital in the MO basis (canonical Q-Chem's ordering):
0  -1.0682e-15 
1  -5.9978e-16 
2  1.9499e-16  
3  1.7804e-16  
4  -2.2197e-17 
5  4.3639e-17  
6  2.5891e-16  
7  6.1669e-16  
8  -3.0528e-17 
9  -9.7087e-18 
10 2.4987e-03  
11 4.7822e-03  
12 -7.4724e-17 
13 -2.0743e-16 
14 -9.9989e-01 
15 -4.2907e-18 
16 6.5835e-17  
17 1.1444e-02  
18 -4.0610e-03 
19 -2.0466e-17 
20 8.9791e-17  
21 -4.6978e-03 
22 -4.1173e-03 
23 -8.2777e-04 
24 2.8476e-04  
25 -1.3491e-16 
26 -1.1880e-17 
27 1.6401e-17  
28 -1.6876e-14 
29 5.6984e-17  
30 -1.8118e-16 
31 -6.6898e-04 
32 -5.8867e-17 
33 5.5335e-16  
34 -8.4998e-04 
35 -4.0897e-04 
36 2.5048e-04  
37 -8.8835e-05 
38 -3.3031e-17 
39 9.9715e-17  
40 -1.3127e-04 
41 3.3196e-16  
42 3.3222e-16  
43 -3.3840e-04 
44 -5.7098e-06 
45 7.4720e-06  
46 -5.9638e-17 
47 -3.3503e-17 
48 -2.8976e-07 
49 3.3292e-08  

Decomposition over AOs for the left beta Dyson orbital:
7.89776633e-03
2.42418826e-02
-5.53810206e-02
-9.12358483e-02
1.21060542e-01
3.29229806e-01
-5.35530154e-01
-4.95271515e-01
-6.25660362e-17
-4.34046096e-17
4.17629324e-03
-2.10471374e-17
-1.54652147e-16
4.44822207e-02
-9.60656429e-17
8.51127478e-17
-4.08193550e-02
6.01805667e-16
7.91930668e-16
-1.02536354e-01
-1.01632345e-15
4.74840723e-17
-4.82134074e-02
2.33882582e-16
-3.88032665e-15
4.02754272e-01
7.49206123e-16
-2.70323399e-15
8.47799018e-02
7.74035537e-15
-1.17495891e-15
1.69770807e-02
1.18914184e-15
1.52555751e-13
-8.73382030e-03
-1.46290022e-02
-9.00929297e-16
2.65513052e-16
-1.98892010e-02
3.98471865e-02
-3.04149244e-15
-1.26754114e-15
-2.19849734e-02
8.27846619e-02
3.79113014e-15
5.83835811e-15
-7.66902075e-02
-1.36073556e-02
3.61250021e-03
-3.13541588e-02
   *****

 Right Dyson orbital norm is 0.9979

Right beta Dyson orbital in the MO basis (canonical Q-Chem's ordering):
0  -1.0829e-15 
1  -5.8200e-16 
2  1.5905e-16  
3  1.5922e-16  
4  -2.2093e-17 
5  4.3597e-17  
6  1.7607e-16  
7  6.3144e-16  
8  -3.0135e-17 
9  -9.3467e-18 
10 3.6321e-03  
11 8.7146e-03  
12 -7.5012e-17 
13 -2.0696e-16 
14 -9.9984e-01 
15 -4.0904e-18 
16 6.6035e-17  
17 1.2569e-02  
18 -3.6898e-03 
19 -1.8768e-17 
20 8.9347e-17  
21 -5.1853e-03 
22 -4.5579e-03 
23 -7.5310e-04 
24 2.3308e-04  
25 -1.3548e-16 
26 -1.2924e-17 
27 1.7323e-17  
28 -1.8409e-14 
29 5.8012e-17  
30 -1.7989e-16 
31 -7.5537e-04 
32 -5.9292e-17 
33 5.5400e-16  
34 -7.2654e-04 
35 -4.1524e-04 
36 2.9375e-04  
37 -4.2712e-05 
38 -3.4113e-17 
39 9.9831e-17  
40 -1.3002e-04 
41 3.3014e-16  
42 3.3125e-16  
43 -2.6095e-04 
44 -7.5062e-06 
45 4.4694e-06  
46 -6.1164e-17 
47 -3.3440e-17 
48 -2.1863e-07 
49 -5.7962e-08 

Decomposition over AOs for the right beta Dyson orbital:
7.88133412e-03
2.41927909e-02
-5.52791666e-02
-9.10179329e-02
1.20698920e-01
3.29061766e-01
-5.36250596e-01
-4.95281748e-01
-6.24656400e-17
-4.27203347e-17
4.20569603e-03
-2.03596156e-17
-1.51977480e-16
4.47992503e-02
-9.86303462e-17
8.13245368e-17
-4.11303130e-02
5.99880502e-16
7.90208109e-16
-1.03095878e-01
-1.01947509e-15
4.08416048e-17
-4.85719525e-02
2.62253022e-16
-3.83506718e-15
4.01489541e-01
7.25345126e-16
-2.66988895e-15
8.44657529e-02
7.76346220e-15
-1.18168567e-15
1.73335934e-02
1.17368878e-15
1.51776632e-13
-8.97734254e-03
-1.50487571e-02
-8.99402613e-16
2.39268822e-16
-2.06244935e-02
4.08789085e-02
-3.04074105e-15
-1.30016963e-15
-2.32314442e-02
8.49638949e-02
3.80131760e-15
5.79282175e-15
-7.89115085e-02
-1.41870255e-02
3.54639073e-03
-3.16884718e-02
   *****

     End transition

 ------------------------------------------------------------------------------
 State A: eomea_ccsd/b: 1/B1
 State B: ccsd: 0/A1

       ***    Dyson orbital calculation   *** 

 EOM-EA-CCSD state  1/B1 -- Reference  transition
 Energy difference = -2.9376 eV.

 Left Dyson orbital norm is 0.9961

Left beta Dyson orbital in the MO basis (canonical Q-Chem's ordering):
0  -2.2442e-17 
1  3.1707e-17  
2  -5.9088e-17 
3  1.3674e-16  
4  -1.4276e-15 
5  1.3495e-17  
6  3.3980e-16  
7  -1.6556e-17 
8  9.0553e-16  
9  1.5017e-16  
10 -7.0117e-17 
11 -8.1626e-17 
12 1.9853e-02  
13 6.5456e-16  
14 7.4497e-19  
15 -9.9978e-01 
16 -1.3817e-16 
17 9.5022e-17  
18 -1.5183e-16 
19 5.8577e-03  
20 -1.6799e-16 
21 -2.7958e-16 
22 -1.1030e-16 
23 -1.6050e-16 
24 8.6253e-17  
25 -1.4614e-03 
26 2.2141e-16  
27 -7.1907e-17 
28 4.1703e-16  
29 -1.2843e-03 
30 -4.4576e-16 
31 -2.5194e-16 
32 -8.6751e-04 
33 8.9283e-17  
34 -3.0480e-16 
35 3.6708e-16  
36 1.8470e-16  
37 -1.9999e-16 
38 3.0252e-05  
39 -5.4817e-16 
40 -1.4635e-16 
41 -6.4370e-04 
42 2.8626e-16  
43 6.1742e-17  
44 8.5078e-16  
45 -8.9432e-16 
46 -7.8351e-07 
47 -4.0920e-16 
48 1.6200e-16  
49 -1.5601e-17 

Decomposition over AOs for the left beta Dyson orbital:
-3.25132924e-17
-4.14669878e-17
9.94642157e-17
1.51242505e-16
-2.13742101e-16
-7.63862570e-16
5.35205611e-15
-6.74183361e-15
-4.56632870e-03
-2.05703917e-17
-5.88378827e-17
-4.85806587e-02
1.09235578e-17
-1.52920697e-16
4.46436133e-02
2.88406708e-16
-5.65619221e-18
1.16981226e-01
-4.63131667e-16
1.05491358e-15
4.80916655e-02
-4.31875995e-16
-1.28234146e-15
-5.27885527e-01
2.17978856e-15
4.46594361e-16
-6.08240719e-01
-2.02382862e-15
-1.16282667e-15
-3.70148069e-16
-2.49967871e-16
6.27597372e-16
1.41830748e-02
1.68007193e-16
4.83540142e-18
-2.29807341e-17
5.40195182e-02
1.30376452e-16
2.16949982e-17
1.04151960e-17
5.44997234e-02
3.73456829e-16
2.77700867e-16
-2.78076363e-16
1.79637185e-01
-5.07392163e-16
-5.44395307e-16
6.39380970e-17
2.46187858e-16
1.25391108e-15
   *****

 Right Dyson orbital norm is 0.9987

Right beta Dyson orbital in the MO basis (canonical Q-Chem's ordering):
0  -2.4626e-17 
1  2.9622e-17  
2  -5.9854e-17 
3  1.3945e-16  
4  -1.4225e-15 
5  1.9910e-17  
6  3.4549e-16  
7  -1.5757e-17 
8  9.2287e-16  
9  1.4747e-16  
10 -7.0571e-17 
11 -8.1636e-17 
12 2.9691e-02  
13 6.4458e-16  
14 1.4894e-18  
15 -9.9953e-01 
16 -1.3992e-16 
17 9.5316e-17  
18 -1.5247e-16 
19 7.6588e-03  
20 -1.5775e-16 
21 -2.8018e-16 
22 -1.1287e-16 
23 -1.6471e-16 
24 8.9059e-17  
25 -1.4338e-03 
26 2.2519e-16  
27 -7.2262e-17 
28 4.1505e-16  
29 -1.5092e-03 
30 -4.4794e-16 
31 -2.4876e-16 
32 -1.1405e-03 
33 9.7417e-17  
34 -3.0908e-16 
35 3.7260e-16  
36 1.9052e-16  
37 -2.0172e-16 
38 4.5037e-05  
39 -5.5414e-16 
40 -1.4873e-16 
41 -4.8307e-04 
42 2.9211e-16  
43 6.0938e-17  
44 8.6036e-16  
45 -9.1079e-16 
46 -1.2845e-06 
47 -4.0846e-16 
48 1.6618e-16  
49 -1.3025e-17 

Decomposition over AOs for the right beta Dyson orbital:
-3.46563578e-17
-4.19333565e-17
9.96672320e-17
1.55501074e-16
-2.23869364e-16
-7.59274007e-16
5.40396942e-15
-6.82038133e-15
-4.55899842e-03
-2.08961944e-17
-6.16799093e-17
-4.84965224e-02
6.90529608e-18
-1.59084193e-16
4.45796852e-02
2.92594263e-16
-1.93051024e-18
1.16864875e-01
-4.58205312e-16
1.08321430e-15
4.78433984e-02
-4.26433046e-16
-1.30722111e-15
-5.29187546e-01
2.16700943e-15
4.18605184e-16
-6.05983607e-01
-2.02011772e-15
-1.17965525e-15
-3.69287695e-16
-2.50818733e-16
6.27949976e-16
1.44312303e-02
1.74720213e-16
4.11306476e-18
-2.70808230e-17
5.65067439e-02
9.21625763e-17
2.49478379e-17
2.70519974e-17
5.84700348e-02
3.53439882e-16
2.96707523e-16
-3.01691815e-16
1.85208655e-01
-5.73705268e-16
-5.60214397e-16
6.94791114e-17
2.82158648e-16
1.28621722e-15
   *****

     End transition

 ------------------------------------------------------------------------------
 State A: eomea_ccsd/b: 1/B2
 State B: ccsd: 0/A1

       ***    Dyson orbital calculation   *** 

 EOM-EA-CCSD state  1/B2 -- Reference  transition
 Energy difference = -2.9376 eV.

 Left Dyson orbital norm is 0.9961

Left beta Dyson orbital in the MO basis (canonical Q-Chem's ordering):
0  1.4771e-16  
1  8.1870e-17  
2  -1.6855e-16 
3  1.2409e-16  
4  3.4246e-16  
5  9.8305e-16  
6  5.2208e-17  
7  7.8758e-18  
8  3.9280e-16  
9  -1.5439e-16 
10 4.9598e-17  
11 -6.2638e-18 
12 7.5882e-17  
13 1.9853e-02  
14 6.6888e-17  
15 -1.4472e-16 
16 -9.9978e-01 
17 -2.5432e-16 
18 -4.1778e-17 
19 4.3965e-16  
20 5.8577e-03  
21 -6.5219e-17 
22 -7.6009e-17 
23 1.8774e-16  
24 3.3806e-16  
25 1.7395e-16  
26 1.4614e-03  
27 -3.5896e-16 
28 6.3117e-16  
29 -1.2474e-15 
30 1.2843e-03  
31 7.3955e-17  
32 2.8839e-16  
33 8.6751e-04  
34 -3.0247e-17 
35 -2.4399e-17 
36 2.1152e-16  
37 2.5388e-16  
38 -6.2244e-17 
39 -3.0252e-05 
40 1.6386e-16  
41 -4.8829e-16 
42 6.4370e-04  
43 -1.8967e-17 
44 3.2851e-17  
45 -7.7979e-16 
46 -9.7526e-17 
47 -7.8351e-07 
48 -4.1738e-17 
49 -2.9829e-16 

Decomposition over AOs for the left beta Dyson orbital:
1.28265440e-16
3.62219447e-16
-7.55263790e-16
-1.83814841e-15
2.92599968e-15
5.10440554e-15
-7.83813649e-15
-2.44069679e-14
-2.24890147e-17
-4.56632869e-03
-1.17028671e-16
-2.47037162e-16
-4.85806586e-02
-1.40605066e-15
1.48039935e-16
4.46436132e-02
1.59708390e-15
6.39871676e-16
1.16981226e-01
1.96310683e-15
7.58974492e-16
4.80916653e-02
5.64699613e-15
-5.30250739e-15
-5.27885525e-01
-3.74883980e-14
4.77570443e-15
-6.08240720e-01
-3.77406848e-14
-9.34701302e-16
1.41830748e-02
1.61883756e-15
8.08475746e-16
3.13651385e-16
-7.52243157e-16
-1.24886020e-15
7.82928811e-17
5.40195181e-02
-9.50927851e-16
2.24530284e-15
2.75785345e-16
5.44997234e-02
-4.04330477e-16
1.79018613e-14
-1.75440487e-16
1.79637184e-01
-6.27084059e-15
1.13038799e-15
-4.65440191e-15
2.37673248e-14
   *****

 Right Dyson orbital norm is 0.9987

Right beta Dyson orbital in the MO basis (canonical Q-Chem's ordering):
0  1.4708e-16  
1  8.3759e-17  
2  -1.6779e-16 
3  1.2351e-16  
4  3.4636e-16  
5  1.0106e-15  
6  5.3517e-17  
7  6.9855e-18  
8  3.9720e-16  
9  -2.3419e-16 
10 4.8789e-17  
11 -2.9557e-18 
12 6.7259e-17  
13 2.9691e-02  
14 6.8615e-17  
15 -1.5084e-16 
16 -9.9953e-01 
17 -2.5916e-16 
18 -3.9511e-17 
19 4.4494e-16  
20 7.6588e-03  
21 -6.0761e-17 
22 -7.3222e-17 
23 1.8836e-16  
24 3.3736e-16  
25 1.7218e-16  
26 1.4338e-03  
27 -3.5917e-16 
28 6.3377e-16  
29 -1.2425e-15 
30 1.5092e-03  
31 7.0260e-17  
32 2.8738e-16  
33 1.1405e-03  
34 -2.9910e-17 
35 -2.6770e-17 
36 2.1452e-16  
37 2.5608e-16  
38 -6.7338e-17 
39 -4.5037e-05 
40 1.7271e-16  
41 -4.9839e-16 
42 4.8307e-04  
43 -2.4077e-17 
44 3.0686e-17  
45 -7.8103e-16 
46 -9.7684e-17 
47 -1.2845e-06 
48 -4.3988e-17 
49 -2.9668e-16 

Decomposition over AOs for the right beta Dyson orbital:
1.27886474e-16
3.54386012e-16
-7.38802430e-16
-1.82908763e-15
2.89618062e-15
5.07671135e-15
-7.76507333e-15
-2.44170357e-14
-2.23315588e-17
-4.55899841e-03
-1.16560156e-16
-2.46107236e-16
-4.84965223e-02
-1.40481045e-15
1.47692005e-16
4.45796851e-02
1.60097046e-15
6.30948918e-16
1.16864874e-01
1.96228194e-15
7.64094100e-16
4.78433982e-02
5.60586845e-15
-5.30796002e-15
-5.29187544e-01
-3.74738113e-14
4.78354436e-15
-6.05983609e-01
-3.77238662e-14
-9.32157581e-16
1.44312303e-02
1.64280986e-15
8.11323656e-16
3.12542519e-16
-7.48845335e-16
-1.24648804e-15
1.20267492e-16
5.65067438e-02
-1.00283922e-15
2.23196760e-15
3.17250909e-16
5.84700347e-02
-4.92154834e-16
1.79273172e-14
-1.43475546e-16
1.85208655e-01
-6.32656250e-15
1.12107897e-15
-4.69135628e-15
2.37225545e-14
   *****

     End transition


 All requested transition properties have been computed

 Transition Properties:   CPU 0.42 s  wall 0.15 s

 Total ccman2 time:   CPU 49.14 s  wall 12.53 s


 --------------------------------------------------------------
             Orbital Energies (a.u.) and Symmetries
 --------------------------------------------------------------

 Alpha MOs, Restricted
 -- Occupied --                  
-149.58  -20.58  -17.04  -13.85  -13.85  -13.85   -2.46   -1.58
  1 A1    2 A1    3 A1    4 A1    1 B1    1 B2    5 A1    6 A1                 
 -1.566  -1.566  -1.329  -0.722  -0.555  -0.555
  2 B1    2 B2    7 A1    8 A1    3 B1    3 B2                                 
 -- Virtual --                   
 -0.199  -0.108  -0.108  -0.076  -0.036  -0.018  -0.018   0.018
  9 A1    4 B1    4 B2   10 A1   11 A1    5 B1    5 B2   12 A1                 
  0.135   0.470   0.596   0.616   0.616   0.627   0.627   0.674
 13 A1   14 A1   15 A1    6 B1    6 B2    1 A2   16 A1    7 B1                 
  0.674   0.821   0.970   0.970   1.231   1.382   1.746   2.485
  7 B2   17 A1    8 B1    8 B2   18 A1   19 A1   20 A1   21 A1                 
  4.344   4.344   4.424   5.286   5.286   5.620  14.892  51.404
  9 B1    9 B2   22 A1   10 B1   10 B2   23 A1   24 A1   25 A1                 
110.526 110.526 110.587 321.364
 11 B1   11 B2   26 A1   27 A1                                                 

 Beta MOs, Restricted
 -- Occupied --                  
-149.58  -20.58  -17.04  -13.85  -13.85  -13.85   -2.46   -1.58
  1 A1    2 A1    3 A1    4 A1    1 B1    1 B2    5 A1    6 A1                 
 -1.566  -1.566  -1.329  -0.722  -0.555  -0.555
  2 B1    2 B2    7 A1    8 A1    3 B1    3 B2                                 
 -- Virtual --                   
 -0.199  -0.108  -0.108  -0.076  -0.036  -0.018  -0.018   0.018
  9 A1    4 B1    4 B2   10 A1   11 A1    5 B1    5 B2   12 A1                 
  0.135   0.470   0.596   0.616   0.616   0.627   0.627   0.674
 13 A1   14 A1   15 A1    6 B1    6 B2    1 A2   16 A1    7 B1                 
  0.674   0.821   0.970   0.970   1.231   1.382   1.746   2.485
  7 B2   17 A1    8 B1    8 B2   18 A1   19 A1   20 A1   21 A1                 
  4.344   4.344   4.424   5.286   5.286   5.620  14.892  51.404
  9 B1    9 B2   22 A1   10 B1   10 B2   23 A1   24 A1   25 A1                 
110.526 110.526 110.587 321.364
 11 B1   11 B2   26 A1   27 A1                                                 
 --------------------------------------------------------------

          Ground-State Mulliken Net Atomic Charges

     Atom                 Charge (a.u.)
  ----------------------------------------
      1 Ca                    1.864844
      2 O                    -1.334817
      3 H                     0.469973
  ----------------------------------------
  Sum of atomic charges =     1.000000

 -----------------------------------------------------------------
                    Cartesian Multipole Moments
 -----------------------------------------------------------------
    Charge (ESU x 10^10)
                 4.8032
    Dipole Moment (Debye)
         X       0.0000      Y      -0.0000      Z      -8.7327
       Tot       8.7327
    Quadrupole Moments (Debye-Ang)
        XX     -15.4742     XY       0.0000     YY     -15.4742
        XZ       0.0000     YZ       0.0000     ZZ      -9.7204
    Octopole Moments (Debye-Ang^2)
       XXX       0.0000    XXY      -0.0000    XYY       0.0000
       YYY      -0.0000    XXZ      -5.9966    XYZ       0.0000
       YYZ      -5.9966    XZZ       0.0000    YZZ      -0.0000
       ZZZ      -2.8712
    Hexadecapole Moments (Debye-Ang^3)
      XXXX     -12.2076   XXXY       0.0000   XXYY      -4.0692
      XYYY       0.0000   YYYY     -12.2076   XXXZ       0.0000
      XXYZ       0.0000   XYYZ       0.0000   YYYZ       0.0000
      XXZZ     -21.6541   XYZZ       0.0000   YYZZ     -21.6541
      XZZZ       0.0000   YZZZ      -0.0000   ZZZZ     -62.4447
 -----------------------------------------------------------------
 Total job time:  14.79s(wall), 53.83s(cpu) 
 Tue Jan 17 12:55:44 2023

        *************************************************************
        *                                                           *
        *  Thank you very much for using Q-Chem.  Have a nice day.  *
        *                                                           *
        *************************************************************


