                  Welcome to Q-Chem
     A Quantum Leap Into The Future Of Chemistry


 Q-Chem 6.0 (devel), Q-Chem, Inc., Pleasanton, CA (2022)

 E. Epifanovsky,  A. T. B. Gilbert,  Xintian Feng,  Joonho Lee,  Yuezhi Mao,  
 N. Mardirossian,  P. Pokhilko,  A. White,  M. Wormit,  M. P. Coons,  
 A. L. Dempwolff,  Zhengting Gan,  D. Hait,  P. R. Horn,  L. D. Jacobson,  
 I. Kaliman,  J. Kussmann,  A. W. Lange,  Ka Un Lao,  D. S. Levine,  Jie Liu,  
 S. C. McKenzie,  A. F. Morrison,  K. Nanda,  F. Plasser,  D. R. Rehn,  
 M. L. Vidal,  Zhi-Qiang You,  Ying Zhu,  B. Alam,  B. Albrecht,  
 A. Aldossary,  E. Alguire,  J. H. Andersen,  V. Athavale,  D. Barton,  
 K. Begam,  A. Behn,  N. Bellonzi,  Y. A. Bernard,  E. J. Berquist,  
 H. Burton,  A. Carreras,  K. Carter-Fenk,  Romit Chakraborty,  
 Chandrima Chakravarty,  Junhan Chen,  A. D. Chien,  K. D. Closser,  
 V. Cofer-Shabica,  L. Cunha,  S. Dasgupta,  Jia Deng,  M. de Wergifosse,  
 M. Diedenhofen,  Hainam Do,  S. Ehlert,  Po-Tung Fang,  S. Fatehi,  
 Qingguo Feng,  T. Friedhoff,  B. Ganoe,  J. Gayvert,  Qinghui Ge,  
 G. Gidofalvi,  M. Goldey,  J. Gomes,  C. Gonzalez-Espinoza,  S. Gulania,  
 A. Gunina,  J. A. Gyamfi,  M. W. D. Hanson-Heine,  P. H. P. Harbach,  
 A. W. Hauser,  M. F. Herbst,  M. Hernandez Vera,  M. Hodecker,  
 Z. C. Holden,  S. Houck,  Xunkun Huang,  Kerwin Hui,  B. C. Huynh,  
 K. Ikeda,  M. Ivanov,  Hyunjun Ji,  Zuxin Jin,  Hanjie Jiang,  B. Kaduk,  
 S. Kaehler,  R. Kang,  K. Khistyaev,  Jaehoon Kim,  Yongbin Kim,  
 P. Klunzinger,  Z. Koczor-Benda,  Joong Hoon Koh,  D. Kosenkov,  
 Saikiran Kotaru,  L. Koulias,  T. Kowalczyk,  C. M. Krauter,  K. Kue,  
 A. Kunitsa,  T. Kus,  A. Landau,  K. V. Lawler,  D. Lefrancois,  S. Lehtola,  
 Rain Li,  Shaozhi Li,  Yi-Pei Li,  Jiashu Liang,  M. Liebenthal,  
 Hung-Hsuan Lin,  You-Sheng Lin,  Fenglai Liu,  Kuan-Yu Liu,  
 M. Loipersberger,  A. Luenser,  C. Malbon,  A. Manjanath,  P. Manohar,  
 E. Mansoor,  S. F. Manzer,  Shan-Ping Mao,  A. V. Marenich,  T. Markovich,  
 S. Mason,  F. Matz,  S. A. Maurer,  P. F. McLaughlin,  M. F. S. J. Menger,  
 J.-M. Mewes,  S. A. Mewes,  P. Morgante,  Mohammad Mostafanejad,  
 J. W. Mullinax,  K. J. Oosterbaan,  G. Paran,  V. Parravicini,  
 Alexander C. Paul,  Suranjan K. Paul,  F. Pavosevic,  Zheng Pei,  S. Prager,  
 E. I. Proynov,  E. Ramos,  B. Rana,  A. E. Rask,  A. Rettig,  R. M. Richard,  
 F. Rob,  E. Rossomme,  T. Scheele,  M. Scheurer,  M. Schneider,  
 P. E. Schneider,  N. Sergueev,  S. M. Sharada,  Hengyuan Shen,  
 W. Skomorowski,  D. W. Small,  C. J. Stein,  Yingli Su,  Yu-Chuan Su,  
 E. J. Sundstrom,  Zhen Tao,  J. Thirman,  Hung-Yi Tsai,  T. Tsuchimochi,  
 N. M. Tubman,  C. Utku,  S. P. Veccham,  O. Vydrov,  J. Wenzel,  
 Jonathan Wong,  J. Witte,  A. Yamada,  Chou-Hsun Yang,  Kun Yao,  
 S. Yeganeh,  S. R. Yost,  A. Zech,  F. Zeller,  Igor Ying Zhang,  
 Xing Zhang,  Yu Zhang,  D. Zuev,  A. Aspuru-Guzik,  A. T. Bell,  
 N. A. Besley,  K. B. Bravaya,  B. R. Brooks,  D. Casanova,  Jeng-Da Chai,  
 Hsing-Ta Chen,  S. Coriani,  C. J. Cramer,  A. E. DePrince, III,  
 R. A. DiStasio Jr.,  A. Dreuw,  B. D. Dunietz,  T. R. Furlani,  
 W. A. Goddard III,  S. Grimme,  S. Hammes-Schiffer,  T. Head-Gordon,  
 W. J. Hehre,  Chao-Ping Hsu,  T.-C. Jagau,  Yousung Jung,  A. Klamt,  
 Jing Kong,  D. S. Lambrecht,  Xiangyuan Li,  WanZhen Liang,  N. J. Mayhall,  
 C. W. McCurdy,  J. B. Neaton,  T. Neudecker,  C. Ochsenfeld,  
 J. A. Parkhill,  R. Peverati,  V. A. Rassolov,  Haisheng Ren,  Yihan Shao,  
 L. V. Slipchenko,  R. P. Steele,  J. E. Subotnik,  A. J. W. Thom,  
 A. Tkatchenko,  D. G. Truhlar,  T. Van Voorhis,  Fan Wang,  
 T. A. Wesolowski,  K. B. Whaley,  H. L. Woodcock III,  P. M. Zimmerman,  
 S. Faraji,  P. M. W. Gill,  M. Head-Gordon,  J. M. Herbert,  A. I. Krylov

 Contributors to earlier versions of Q-Chem not listed above: 
 R. D. Adamson,  B. Austin,  R. Baer,  J. Baker,  G. J. O. Beran,  
 K. Brandhorst,  S. T. Brown,  E. F. C. Byrd,  Arup K. Chakraborty,  
 G. K. L. Chan,  Chun-Min Chang,  Yunqing Chen,  C.-L. Cheng,  
 Siu Hung Chien,  D. M. Chipman,  D. L. Crittenden,  H. Dachsel,  
 R. J. Doerksen,  A. D. Dutoi,  R. G. Edgar,  J. Fosso-Tande,  
 L. Fusti-Molnar,  D. Ghosh,  A. Ghysels,  A. Golubeva-Zadorozhnaya,  
 J. Gonthier,  M. S. Gordon,  S. R. Gwaltney,  G. Hawkins,  J. E. Herr,  
 A. Heyden,  S. Hirata,  E. G. Hohenstein,  G. Kedziora,  F. J. Keil,  
 C. Kelley,  Jihan Kim,  R. A. King,  R. Z. Khaliullin,  P. P. Korambath,  
 W. Kurlancheek,  A. Laurent,  A. M. Lee,  M. S. Lee,  S. V. Levchenko,  
 Ching Yeh Lin,  D. Liotard,  E. Livshits,  R. C. Lochan,  I. Lotan,  
 L. A. Martinez-Martinez,  P. E. Maslen,  N. Nair,  D. P. O'Neill,  
 D. Neuhauser,  E. Neuscamman,  C. M. Oana,  R. Olivares-Amaya,  R. Olson,  
 T. M. Perrine,  B. Peters,  P. A. Pieniazek,  A. Prociuk,  Y. M. Rhee,  
 J. Ritchie,  M. A. Rohrdanz,  E. Rosta,  N. J. Russ,  H. F. Schaefer III,  
 M. W. Schmidt,  N. E. Schultz,  S. Sharma,  N. Shenvi,  C. D. Sherrill,  
 A. C. Simmonett,  A. Sodt,  T. Stein,  D. Stuck,  K. S. Thanthiriwatte,  
 V. Vanovschi,  L. Vogt,  Tao Wang,  A. Warshel,  M. A. Watson,  
 C. F. Williams,  Q. Wu,  X. Xu,  Jun Yang,  W. Zhang,  Yan Zhao

   Please cite Q-Chem as follows:
  "Software for the frontiers of quantum chemistry:
   An overview of developments in the Q-Chem 5 package"
   J. Chem. Phys. 155, 084801 (2021)
   https://doi.org/10.1063/5.0055522 (open access)

 Q-Chem 6.0.2 for Intel X86 EM64T Linux

 Parts of Q-Chem use Armadillo 9.900.5 (Nocturnal Misbehaviour).
 http://arma.sourceforge.net/

 Q-Chem begins on Tue Jan 31 11:31:54 2023  

orc21
 Host: 0

     Scratch files written to /scratch/wojcik/qchem23330//
 Processing $rem in /qcsoftware/qchem_latest/config/preferences:
 Processing $rem in /home/users/wojcik/.qchemrc:
 Core orbitals will be frozen

 Checking the input file for inconsistencies... 	...done.

--------------------------------------------------------------
User input:
--------------------------------------------------------------
$comment
Magnesium diradical on an acetylen bridge Mg-CC-Mg.

Geometry (similar to): J. Phys. Chem. Lett. 2020, 11, 4, 1297--1304

molecule: charge = +2, multiplicity = 1
$end

$molecule
2 1
Mg 0.0000000000 0.0000000000 -0.9942571725
C  0.0000000000 0.0000000000  1.1148209748
C  0.0000000000 0.0000000000  2.3634057834
Mg 0.0000000000 0.0000000000  4.4730304143
$end

$rem
  method = eom-ccsd
  dea_singlets = [1, 0, 1, 1]
  dea_triplets = [1, 0, 1, 1]
  basis = 6-31G*
  eom_nguess_doubles = 5
! transition properties
  cc_trans_prop = 2
$end
--------------------------------------------------------------
 ----------------------------------------------------------------
             Standard Nuclear Orientation (Angstroms)
    I     Atom           X                Y                Z
 ----------------------------------------------------------------
    1      Mg      0.0000000000     0.0000000000    -2.7335527128
    2      C       0.0000000000     0.0000000000    -0.6244745655
    3      C       0.0000000000     0.0000000000     0.6241102431
    4      Mg      0.0000000000     0.0000000000     2.7337348740
 ----------------------------------------------------------------
 Molecular Point Group                 C2v   NOp =  4
 Largest Abelian Subgroup              C2v   NOp =  4
 Nuclear Repulsion Energy =          88.01382796 hartrees
 There are       17 alpha and       17 beta electrons
 Requested basis set is 6-31G(d)
 There are 18 shells and 68 basis functions
 Total memory of 2000 MB is distributed as follows: 
   MEM_STATIC is set to 192 MB
   QALLOC/CCMAN JOB total memory use is  1808 MB
 Warning: actual memory use might exceed 2000 MB

 Total QAlloc Memory Limit   2000 MB
 Mega-Array Size       188 MB
 MEM_STATIC part       192 MB


                       Distance Matrix (Angstroms)
             Mg(  1)   C (  2)   C (  3)
   C (  2)  2.109078
   C (  3)  3.357663  1.248585
   Mg(  4)  5.467288  3.358209  2.109625

 A cutoff of  1.0D-14 yielded    163 shell pairs
 There are      2437 function pairs
 Smallest overlap matrix eigenvalue = 6.01E-04

 Scale SEOQF with 1.000000e-01/1.000000e-01/1.000000e-01

 Standard Electronic Orientation quadrupole field applied
 Nucleus-field energy     =    -0.0000000197 hartrees
 Guess from superposition of atomic densities
 Warning:  Energy on first SCF cycle will be non-variational
 SAD guess density has 36.000000 electrons

 -----------------------------------------------------------------------
  General SCF calculation program by
  Eric Jon Sundstrom, Paul Horn, Yuezhi Mao, Dmitri Zuev, Alec White,
  David Stuck, Shaama M.S., Shane Yost, Joonho Lee, David Small,
  Daniel Levine, Susi Lehtola, Hugh Burton, Evgeny Epifanovsky,
  Bang C. Huynh
 -----------------------------------------------------------------------
 Hartree-Fock
 using 12 threads for integral computing
 -------------------------------------------------------
 OpenMP Integral computing Module                
 Release: version 1.0, May 2013, Q-Chem Inc. Pittsburgh 
 -------------------------------------------------------
 A restricted SCF calculation will be
 performed using DIIS
 SCF converges when DIIS error is below 1.0e-08
 ---------------------------------------
  Cycle       Energy         DIIS error
 ---------------------------------------
    1    -475.2384481172      6.09e-02  
    2    -474.2022809171      5.69e-03  
    3    -474.2482606807      1.72e-03  
    4    -474.2542511391      7.28e-04  
    5    -474.2552927662      2.40e-04  
    6    -474.2553971928      7.46e-05  
    7    -474.2554147746      1.37e-05  
    8    -474.2554152466      3.69e-06  
    9    -474.2554152579      1.81e-06  
   10    -474.2554152604      1.11e-07  
   11    -474.2554152604      1.20e-08  
   12    -474.2554152604      1.34e-09  Convergence criterion met
 ---------------------------------------
 SCF time:   CPU 6.54s  wall 2.00s 
 SCF   energy in the final basis set =     -474.2554152604
 Total energy in the final basis set =     -474.2554152604


 ------------------------------------------------------------------------------

   CCMAN2: suite of methods based on coupled cluster
           and equation of motion theories.

   Components:
   * libvmm-1.3-trunk
     by Evgeny Epifanovsky, Ilya Kaliman.
   * libtensor-2.5-trunk
     by Evgeny Epifanovsky, Michael Wormit, Dmitry Zuev, Sam Manzer, 
        Ilya Kaliman.
   * libcc-2.5-trunk
     by Evgeny Epifanovsky, Arik Landau, Tomasz Kus, Kirill Khistyaev, 
        Dmitry Zuev, Prashant Manohar, Xintian Feng, Anna Krylov, 
        Matthew Goldey, Alec White, Thomas Jagau, Kaushik Nanda, 
        Anastasia Gunina, Alexander Kunitsa, Joonho Lee.

   CCMAN original authors:
   Anna I. Krylov, C. David Sherrill, Steven R. Gwaltney,
   Edward F. C. Byrd (2000)
   Sergey V. Levchenko, Lyudmila V. Slipchenko, Tao Wang,
   Ana-Maria C. Cristian (2003)
   Piotr A. Pieniazek, C. Melania Oana, Evgeny Epifanovsky (2007)
   Prashant Manohar (2009)

 ------------------------------------------------------------------------------


 Allocating and initializing 1808MB of RAM...
 Calculation will run on 12 cores.


 Alpha MOs, Restricted
 -- Occupied --                  
-49.466 -49.466 -11.484 -11.481  -4.199  -4.199  -2.720  -2.720
  1 A1    2 A1    3 A1    4 A1    5 A1    6 A1    1 B1    1 B2                 
 -2.720  -2.720  -2.717  -2.717  -1.229  -0.836  -0.733  -0.626
  2 B1    2 B2    7 A1    8 A1    9 A1   10 A1   11 A1    3 B1                 
 -0.626
  3 B2                                                                         
 -- Virtual --                   
 -0.339  -0.330  -0.238  -0.238  -0.216  -0.216  -0.138  -0.133
 12 A1   13 A1    4 B1    4 B2    5 B1    5 B2   14 A1   15 A1                 
 -0.087  -0.076  -0.069  -0.069  -0.031  -0.031   0.001   0.001
 16 A1   17 A1    6 B1    6 B2    7 B1    7 B2    8 B1    8 B2                 
  0.014   0.068   0.081   0.081   0.081   0.081   0.126   0.126
 18 A1   19 A1   20 A1    1 A2   21 A1    2 A2    9 B1    9 B2                 
  0.249   0.249   0.328   0.391   0.608   0.608   0.661   0.663
 10 B1   10 B2   22 A1   23 A1   11 B1   11 B2   24 A1   25 A1                 
  0.685   0.747   0.830   0.830   1.179   1.268   1.525   1.602
 26 A1   27 A1   12 B1   12 B2   28 A1   29 A1   30 A1   31 A1                 
  1.602   1.609   1.609   1.996   1.996   2.304   2.575   2.575
  3 A2   13 B1   13 B2   32 A1    4 A2   33 A1   14 B1   14 B2                 
  3.110   4.252   4.372
 34 A1   35 A1   36 A1                                                         

 Beta MOs, Restricted
 -- Occupied --                  
-49.466 -49.466 -11.484 -11.481  -4.199  -4.199  -2.720  -2.720
  1 A1    2 A1    3 A1    4 A1    5 A1    6 A1    1 B1    1 B2                 
 -2.720  -2.720  -2.717  -2.717  -1.229  -0.836  -0.733  -0.626
  2 B1    2 B2    7 A1    8 A1    9 A1   10 A1   11 A1    3 B1                 
 -0.626
  3 B2                                                                         
 -- Virtual --                   
 -0.339  -0.330  -0.238  -0.238  -0.216  -0.216  -0.138  -0.133
 12 A1   13 A1    4 B1    4 B2    5 B1    5 B2   14 A1   15 A1                 
 -0.087  -0.076  -0.069  -0.069  -0.031  -0.031   0.001   0.001
 16 A1   17 A1    6 B1    6 B2    7 B1    7 B2    8 B1    8 B2                 
  0.014   0.068   0.081   0.081   0.081   0.081   0.126   0.126
 18 A1   19 A1   20 A1    1 A2   21 A1    2 A2    9 B1    9 B2                 
  0.249   0.249   0.328   0.391   0.608   0.608   0.661   0.663
 10 B1   10 B2   22 A1   23 A1   11 B1   11 B2   24 A1   25 A1                 
  0.685   0.747   0.830   0.830   1.179   1.268   1.525   1.602
 26 A1   27 A1   12 B1   12 B2   28 A1   29 A1   30 A1   31 A1                 
  1.602   1.609   1.609   1.996   1.996   2.304   2.575   2.575
  3 A2   13 B1   13 B2   32 A1    4 A2   33 A1   14 B1   14 B2                 
  3.110   4.252   4.372
 34 A1   35 A1   36 A1                                                         

 Occupation and symmetry of molecular orbitals

 Point group: C2v (4 irreducible representations).

                           A1   A2   B1   B2    All 
 ----------------------------------------------------
 All molecular orbitals:
  - Alpha                  36   4    14   14    68  
  - Beta                   36   4    14   14    68  
 ----------------------------------------------------
 Alpha orbitals:
  - Frozen occupied        8    0    2    2     12  
  - Active occupied        3    0    1    1     5   
  - Active virtual         25   4    11   11    51  
  - Frozen virtual         0    0    0    0     0   
 ----------------------------------------------------
 Beta orbitals:
  - Frozen occupied        8    0    2    2     12  
  - Active occupied        3    0    1    1     5   
  - Active virtual         25   4    11   11    51  
  - Frozen virtual         0    0    0    0     0   
 ----------------------------------------------------

 Import integrals:   CPU 0.00 s  wall 0.00 s

 Import integrals:   CPU 2.13 s  wall 0.37 s

 MP2 amplitudes:   CPU 0.24 s  wall 0.20 s

Running a double precision version
           CCSD T amplitudes will be solved using DIIS.

           Start     Size      MaxIter   EConv     TConv     
           3         7         100       1.00e-06  1.00e-04  
 ------------------------------------------------------------------------------
           Energy (a.u.)   Ediff      Tdiff       Comment
 ------------------------------------------------------------------------------
          -474.53186389                           
     1    -474.52277042   9.09e-03   5.85e-01     
     2    -474.53521302   1.24e-02   8.49e-02     
     3    -474.53538318   1.70e-04   3.39e-02     
     4    -474.53690267   1.52e-03   1.12e-02     Switched to DIIS steps.
     5    -474.53777639   8.74e-04   1.20e-02     
     6    -474.53790873   1.32e-04   4.18e-03     
     7    -474.53792332   1.46e-05   1.59e-03     
     8    -474.53792724   3.91e-06   5.63e-04     
     9    -474.53792981   2.57e-06   2.05e-04     
    10    -474.53792968   1.27e-07   4.11e-05     
 ------------------------------------------------------------------------------
          -474.53792968                           CCSD T converged.

End of double precision
 SCF energy                 = -474.25541526
 MP2 energy                 = -474.53186389
 CCSD correlation energy    =   -0.28251442
 CCSD total energy          = -474.53792968

 CCSD  T1^2 = 0.0111  T2^2 = 0.1513  Leading amplitudes:

 Amplitude    Orbitals with energies
  0.0482       11 (A1) A                 ->    13 (A1) A                  
              -0.7333                         -0.3300                     
  0.0482       11 (A1) B                 ->    13 (A1) B                  
              -0.7333                         -0.3300                     
  0.0292       3 (B2) A                  ->    11 (B2) A                  
              -0.6256                          0.6083                     
  0.0292       3 (B2) B                  ->    11 (B2) B                  
              -0.6256                          0.6083                     
 -0.0292       3 (B1) A                  ->    11 (B1) A                  
              -0.6256                          0.6083                     
 -0.0292       3 (B1) B                  ->    11 (B1) B                  
              -0.6256                          0.6083                     

 Amplitude    Orbitals with energies
 -0.0675       3 (B1) A      3 (B1) B    ->    6 (B1) A      6 (B1) B     
              -0.6256       -0.6256           -0.0690       -0.0690       
  0.0675       3 (B1) A      3 (B1) B    ->    6 (B1) B      6 (B1) A     
              -0.6256       -0.6256           -0.0690       -0.0690       
  0.0675       3 (B1) B      3 (B1) A    ->    6 (B1) A      6 (B1) B     
              -0.6256       -0.6256           -0.0690       -0.0690       
 -0.0675       3 (B1) B      3 (B1) A    ->    6 (B1) B      6 (B1) A     
              -0.6256       -0.6256           -0.0690       -0.0690       
 -0.0675       3 (B2) A      3 (B2) B    ->    6 (B2) A      6 (B2) B     
              -0.6256       -0.6256           -0.0690       -0.0690       
  0.0675       3 (B2) A      3 (B2) B    ->    6 (B2) B      6 (B2) A     
              -0.6256       -0.6256           -0.0690       -0.0690       
  0.0675       3 (B2) B      3 (B2) A    ->    6 (B2) A      6 (B2) B     
              -0.6256       -0.6256           -0.0690       -0.0690       
 -0.0675       3 (B2) B      3 (B2) A    ->    6 (B2) B      6 (B2) A     
              -0.6256       -0.6256           -0.0690       -0.0690       

 Computing CCSD intermediates for later calculations in double precision
 Finished.

Running a double precision version
           CCSD Lambda amplitudes will be solved using DIIS.
           Start     Size      MaxIter   EConv     LConv     
           3         7         100       1.00e-06  1.00e-04  
 ------------------------------------------------------------------------------
            Enorm      Ldiff       Comment
 ------------------------------------------------------------------------------
     1     3.88e-02   3.05e-02     
     2     7.12e-03   2.79e-03     
     3     3.16e-03   1.85e-03     
     4     1.14e-03   7.81e-04     Switched to DIIS steps.
     5     5.55e-04   3.64e-04     
     6     2.46e-04   1.60e-04     
     7     9.37e-05   5.47e-05     
     8     3.66e-05   2.04e-05     
     9     1.16e-05   7.58e-06     
    10     3.84e-06   1.80e-06     
    11     1.62e-06   4.40e-07     
    12     5.32e-07   2.07e-07     
 ------------------------------------------------------------------------------
                                   CCSD Lambda converged.

 CCSD calculation:   CPU 34.53 s  wall 7.03 s

        Solving for EOMDEA-CCSD A1 transitions to singlet states

           EOMDEA-CCSD right amplitudes will be solved using Davidson.
        Amplitudes will be solved using standard  algorithm.
     Hard-coded thresholds: 
     LinDepThresh=1.00e-15  NormThresh=1.00e-06  ReorthogonThresh=1.00e-02

      Roots     MaxVec    MaxIter   Precond   Conv      Shift    
      1         120       60        1         1.00e-05  0.00e+00  
 ------------------------------------------------------------------------------
      Iter ConvRoots NVecs ResNorm^2 Current eigenvalues (eV)
 ------------------------------------------------------------------------------
      0    0      5     3.52e-02   -15.7210   
      1    0      6     1.77e-02   -16.1098   
      2    0      7     5.62e-04   -16.3631   
      3    0      8     6.98e-05   -16.3857   
      4    0      9     1.03e-05   -16.3863   
      5    1      10    1.56e-06   -16.3862*  

     Davidson procedure converged

 EOMDEA-CCSD transition 1/A1
 Total energy = -475.14011146 a.u.  Excitation energy = -16.3862 eV.
 R2^2 = 0.9749  R3^2 = 0.0251  Res^2 = 1.56e-06
 Conv-d = yes

 Amplitude    Transitions between orbitals
  0.7452       infty       ->    12 (A1) A     12 (A1) B                  
 -0.7452       infty       ->    12 (A1) B     12 (A1) A                  
 -0.6456       infty       ->    13 (A1) A     13 (A1) B                  
  0.6456       infty       ->    13 (A1) B     13 (A1) A                  

              Summary of significant orbitals:

               Number  Type             Irrep      Energy
               18      Vir  Alpha      12 (A1)     -0.3393
               19      Vir  Alpha      13 (A1)     -0.3300
               18      Vir  Beta       12 (A1)     -0.3393
               19      Vir  Beta       13 (A1)     -0.3300


           EOMDEA-CCSD left amplitudes will be solved using Davidson.
        Amplitudes will be solved using MOM  algorithm.
     Hard-coded thresholds: 
     LinDepThresh=1.00e-15  NormThresh=1.00e-06  ReorthogonThresh=1.00e-02

      Roots     MaxVec    MaxIter   Precond   Conv      Shift    
      1         120       60        1         1.00e-05  0.00e+00  
 ------------------------------------------------------------------------------
      Iter ConvRoots NVecs ResNorm^2 Current eigenvalues (eV)
 ------------------------------------------------------------------------------
      0    0      1     1.18e-03   -16.3862   
      1    0      2     4.91e-04   -16.3863   
      2    0      3     3.21e-05   -16.3864   
      3    1      4     6.73e-06   -16.3864*  

     Davidson procedure converged

        Solving for EOMDEA-CCSD B1 transitions to singlet states

           EOMDEA-CCSD right amplitudes will be solved using Davidson.
        Amplitudes will be solved using standard  algorithm.
     Hard-coded thresholds: 
     LinDepThresh=1.00e-15  NormThresh=1.00e-06  ReorthogonThresh=1.00e-02

      Roots     MaxVec    MaxIter   Precond   Conv      Shift    
      1         120       60        1         1.00e-05  0.00e+00  
 ------------------------------------------------------------------------------
      Iter ConvRoots NVecs ResNorm^2 Current eigenvalues (eV)
 ------------------------------------------------------------------------------
      0    0      5     3.21e-02   -12.6739   
      1    0      6     1.85e-02   -13.0653   
      2    0      7     8.04e-04   -13.3717   
      3    0      8     1.20e-04   -13.3966   
      4    0      9     1.96e-05   -13.3982   
      5    1      10    3.46e-06   -13.3978*  

     Davidson procedure converged

 EOMDEA-CCSD transition 1/B1
 Total energy = -475.03029068 a.u.  Excitation energy = -13.3978 eV.
 R2^2 = 0.9654  R3^2 = 0.0346  Res^2 = 3.46e-06
 Conv-d = yes

 Amplitude    Transitions between orbitals
  0.5419       infty       ->    12 (A1) A     4 (B1) B                   
  0.5419       infty       ->    4 (B1) A      12 (A1) B                  
 -0.5419       infty       ->    12 (A1) B     4 (B1) A                   
 -0.5419       infty       ->    4 (B1) B      12 (A1) A                  
  0.4315       infty       ->    13 (A1) A     5 (B1) B                   
  0.4315       infty       ->    5 (B1) A      13 (A1) B                  
 -0.4315       infty       ->    13 (A1) B     5 (B1) A                   
 -0.4315       infty       ->    5 (B1) B      13 (A1) A                  

              Summary of significant orbitals:

               Number  Type             Irrep      Energy
               18      Vir  Alpha      12 (A1)     -0.3393
               19      Vir  Alpha      13 (A1)     -0.3300
               20      Vir  Alpha       4 (B1)     -0.2385
               22      Vir  Alpha       5 (B1)     -0.2156
               18      Vir  Beta       12 (A1)     -0.3393
               19      Vir  Beta       13 (A1)     -0.3300
               20      Vir  Beta        4 (B1)     -0.2385
               22      Vir  Beta        5 (B1)     -0.2156


           EOMDEA-CCSD left amplitudes will be solved using Davidson.
        Amplitudes will be solved using MOM  algorithm.
     Hard-coded thresholds: 
     LinDepThresh=1.00e-15  NormThresh=1.00e-06  ReorthogonThresh=1.00e-02

      Roots     MaxVec    MaxIter   Precond   Conv      Shift    
      1         120       60        1         1.00e-05  0.00e+00  
 ------------------------------------------------------------------------------
      Iter ConvRoots NVecs ResNorm^2 Current eigenvalues (eV)
 ------------------------------------------------------------------------------
      0    0      1     9.99e-04   -13.3978   
      1    0      2     4.14e-04   -13.3980   
      2    0      3     2.49e-05   -13.3981   
      3    1      4     6.54e-06   -13.3981*  

     Davidson procedure converged

        Solving for EOMDEA-CCSD B2 transitions to singlet states

           EOMDEA-CCSD right amplitudes will be solved using Davidson.
        Amplitudes will be solved using standard  algorithm.
     Hard-coded thresholds: 
     LinDepThresh=1.00e-15  NormThresh=1.00e-06  ReorthogonThresh=1.00e-02

      Roots     MaxVec    MaxIter   Precond   Conv      Shift    
      1         120       60        1         1.00e-05  0.00e+00  
 ------------------------------------------------------------------------------
      Iter ConvRoots NVecs ResNorm^2 Current eigenvalues (eV)
 ------------------------------------------------------------------------------
      0    0      5     3.21e-02   -12.6739   
      1    0      6     1.85e-02   -13.0653   
      2    0      7     8.04e-04   -13.3717   
      3    0      8     1.20e-04   -13.3966   
      4    0      9     1.96e-05   -13.3982   
      5    1      10    3.46e-06   -13.3978*  

     Davidson procedure converged

 EOMDEA-CCSD transition 1/B2
 Total energy = -475.03029068 a.u.  Excitation energy = -13.3978 eV.
 R2^2 = 0.9654  R3^2 = 0.0346  Res^2 = 3.46e-06
 Conv-d = yes

 Amplitude    Transitions between orbitals
  0.5419       infty       ->    12 (A1) A     4 (B2) B                   
  0.5419       infty       ->    4 (B2) A      12 (A1) B                  
 -0.5419       infty       ->    12 (A1) B     4 (B2) A                   
 -0.5419       infty       ->    4 (B2) B      12 (A1) A                  
  0.4315       infty       ->    13 (A1) A     5 (B2) B                   
  0.4315       infty       ->    5 (B2) A      13 (A1) B                  
 -0.4315       infty       ->    13 (A1) B     5 (B2) A                   
 -0.4315       infty       ->    5 (B2) B      13 (A1) A                  

              Summary of significant orbitals:

               Number  Type             Irrep      Energy
               18      Vir  Alpha      12 (A1)     -0.3393
               19      Vir  Alpha      13 (A1)     -0.3300
               21      Vir  Alpha       4 (B2)     -0.2385
               23      Vir  Alpha       5 (B2)     -0.2156
               18      Vir  Beta       12 (A1)     -0.3393
               19      Vir  Beta       13 (A1)     -0.3300
               21      Vir  Beta        4 (B2)     -0.2385
               23      Vir  Beta        5 (B2)     -0.2156


           EOMDEA-CCSD left amplitudes will be solved using Davidson.
        Amplitudes will be solved using MOM  algorithm.
     Hard-coded thresholds: 
     LinDepThresh=1.00e-15  NormThresh=1.00e-06  ReorthogonThresh=1.00e-02

      Roots     MaxVec    MaxIter   Precond   Conv      Shift    
      1         120       60        1         1.00e-05  0.00e+00  
 ------------------------------------------------------------------------------
      Iter ConvRoots NVecs ResNorm^2 Current eigenvalues (eV)
 ------------------------------------------------------------------------------
      0    0      1     9.99e-04   -13.3978   
      1    0      2     4.14e-04   -13.3980   
      2    0      3     2.49e-05   -13.3981   
      3    1      4     6.54e-06   -13.3981*  

     Davidson procedure converged

        Solving for EOMDEA-CCSD A1 transitions to triplet states

           EOMDEA-CCSD right amplitudes will be solved using Davidson.
        Amplitudes will be solved using standard  algorithm.
     Hard-coded thresholds: 
     LinDepThresh=1.00e-15  NormThresh=1.00e-06  ReorthogonThresh=1.00e-02

      Roots     MaxVec    MaxIter   Precond   Conv      Shift    
      1         120       60        1         1.00e-05  0.00e+00  
 ------------------------------------------------------------------------------
      Iter ConvRoots NVecs ResNorm^2 Current eigenvalues (eV)
 ------------------------------------------------------------------------------
      0    0      5     3.63e-02   -15.6891   
      1    0      6     1.80e-02   -16.0885   
      2    0      7     5.42e-04   -16.3454   
      3    0      8     5.44e-05   -16.3656   
      4    1      9     6.65e-06   -16.3661*  

     Davidson procedure converged

 EOMDEA-CCSD transition 1/A1
 Total energy = -475.13937217 a.u.  Excitation energy = -16.3661 eV.
 R2^2 = 0.9757  R3^2 = 0.0243  Res^2 = 6.65e-06
 Conv-d = yes

 Amplitude    Transitions between orbitals
  0.6976       infty       ->    12 (A1) A     13 (A1) B                  
 -0.6976       infty       ->    13 (A1) A     12 (A1) B                  
 -0.6976       infty       ->    13 (A1) B     12 (A1) A                  
  0.6976       infty       ->    12 (A1) B     13 (A1) A                  

              Summary of significant orbitals:

               Number  Type             Irrep      Energy
               18      Vir  Alpha      12 (A1)     -0.3393
               19      Vir  Alpha      13 (A1)     -0.3300
               18      Vir  Beta       12 (A1)     -0.3393
               19      Vir  Beta       13 (A1)     -0.3300


           EOMDEA-CCSD left amplitudes will be solved using Davidson.
        Amplitudes will be solved using MOM  algorithm.
     Hard-coded thresholds: 
     LinDepThresh=1.00e-15  NormThresh=1.00e-06  ReorthogonThresh=1.00e-02

      Roots     MaxVec    MaxIter   Precond   Conv      Shift    
      1         120       60        1         1.00e-05  0.00e+00  
 ------------------------------------------------------------------------------
      Iter ConvRoots NVecs ResNorm^2 Current eigenvalues (eV)
 ------------------------------------------------------------------------------
      0    0      1     1.21e-03   -16.3661   
      1    0      2     4.92e-04   -16.3660   
      2    0      3     1.84e-05   -16.3661   
      3    1      4     2.06e-06   -16.3661*  

     Davidson procedure converged

        Solving for EOMDEA-CCSD B1 transitions to triplet states

           EOMDEA-CCSD right amplitudes will be solved using Davidson.
        Amplitudes will be solved using standard  algorithm.
     Hard-coded thresholds: 
     LinDepThresh=1.00e-15  NormThresh=1.00e-06  ReorthogonThresh=1.00e-02

      Roots     MaxVec    MaxIter   Precond   Conv      Shift    
      1         120       60        1         1.00e-05  0.00e+00  
 ------------------------------------------------------------------------------
      Iter ConvRoots NVecs ResNorm^2 Current eigenvalues (eV)
 ------------------------------------------------------------------------------
      0    0      5     3.14e-02   -12.7803   
      1    0      6     1.86e-02   -13.1678   
      2    0      7     9.03e-04   -13.4826   
      3    0      8     1.45e-04   -13.5115   
      4    0      9     2.93e-05   -13.5132   
      5    1      10    5.82e-06   -13.5132*  

     Davidson procedure converged

 EOMDEA-CCSD transition 1/B1
 Total energy = -475.03453088 a.u.  Excitation energy = -13.5132 eV.
 R2^2 = 0.9600  R3^2 = 0.0400  Res^2 = 5.82e-06
 Conv-d = yes

 Amplitude    Transitions between orbitals
 -0.5806       infty       ->    12 (A1) A     4 (B1) B                   
  0.5806       infty       ->    4 (B1) A      12 (A1) B                  
 -0.5806       infty       ->    12 (A1) B     4 (B1) A                   
  0.5806       infty       ->    4 (B1) B      12 (A1) A                  
 -0.3753       infty       ->    13 (A1) A     5 (B1) B                   
  0.3753       infty       ->    5 (B1) A      13 (A1) B                  
 -0.3753       infty       ->    13 (A1) B     5 (B1) A                   
  0.3753       infty       ->    5 (B1) B      13 (A1) A                  

              Summary of significant orbitals:

               Number  Type             Irrep      Energy
               18      Vir  Alpha      12 (A1)     -0.3393
               19      Vir  Alpha      13 (A1)     -0.3300
               20      Vir  Alpha       4 (B1)     -0.2385
               22      Vir  Alpha       5 (B1)     -0.2156
               18      Vir  Beta       12 (A1)     -0.3393
               19      Vir  Beta       13 (A1)     -0.3300
               20      Vir  Beta        4 (B1)     -0.2385
               22      Vir  Beta        5 (B1)     -0.2156


           EOMDEA-CCSD left amplitudes will be solved using Davidson.
        Amplitudes will be solved using MOM  algorithm.
     Hard-coded thresholds: 
     LinDepThresh=1.00e-15  NormThresh=1.00e-06  ReorthogonThresh=1.00e-02

      Roots     MaxVec    MaxIter   Precond   Conv      Shift    
      1         120       60        1         1.00e-05  0.00e+00  
 ------------------------------------------------------------------------------
      Iter ConvRoots NVecs ResNorm^2 Current eigenvalues (eV)
 ------------------------------------------------------------------------------
      0    0      1     1.00e-03   -13.5132   
      1    0      2     4.21e-04   -13.5134   
      2    0      3     2.05e-05   -13.5135   
      3    1      4     3.94e-06   -13.5135*  

     Davidson procedure converged

        Solving for EOMDEA-CCSD B2 transitions to triplet states

           EOMDEA-CCSD right amplitudes will be solved using Davidson.
        Amplitudes will be solved using standard  algorithm.
     Hard-coded thresholds: 
     LinDepThresh=1.00e-15  NormThresh=1.00e-06  ReorthogonThresh=1.00e-02

      Roots     MaxVec    MaxIter   Precond   Conv      Shift    
      1         120       60        1         1.00e-05  0.00e+00  
 ------------------------------------------------------------------------------
      Iter ConvRoots NVecs ResNorm^2 Current eigenvalues (eV)
 ------------------------------------------------------------------------------
      0    0      5     3.14e-02   -12.7803   
      1    0      6     1.86e-02   -13.1678   
      2    0      7     9.03e-04   -13.4826   
      3    0      8     1.45e-04   -13.5115   
      4    0      9     2.93e-05   -13.5132   
      5    1      10    5.82e-06   -13.5132*  

     Davidson procedure converged

 EOMDEA-CCSD transition 1/B2
 Total energy = -475.03453088 a.u.  Excitation energy = -13.5132 eV.
 R2^2 = 0.9600  R3^2 = 0.0400  Res^2 = 5.82e-06
 Conv-d = yes

 Amplitude    Transitions between orbitals
 -0.5806       infty       ->    12 (A1) A     4 (B2) B                   
  0.5806       infty       ->    4 (B2) A      12 (A1) B                  
 -0.5806       infty       ->    12 (A1) B     4 (B2) A                   
  0.5806       infty       ->    4 (B2) B      12 (A1) A                  
 -0.3753       infty       ->    13 (A1) A     5 (B2) B                   
  0.3753       infty       ->    5 (B2) A      13 (A1) B                  
 -0.3753       infty       ->    13 (A1) B     5 (B2) A                   
  0.3753       infty       ->    5 (B2) B      13 (A1) A                  

              Summary of significant orbitals:

               Number  Type             Irrep      Energy
               18      Vir  Alpha      12 (A1)     -0.3393
               19      Vir  Alpha      13 (A1)     -0.3300
               21      Vir  Alpha       4 (B2)     -0.2385
               23      Vir  Alpha       5 (B2)     -0.2156
               18      Vir  Beta       12 (A1)     -0.3393
               19      Vir  Beta       13 (A1)     -0.3300
               21      Vir  Beta        4 (B2)     -0.2385
               23      Vir  Beta        5 (B2)     -0.2156


           EOMDEA-CCSD left amplitudes will be solved using Davidson.
        Amplitudes will be solved using MOM  algorithm.
     Hard-coded thresholds: 
     LinDepThresh=1.00e-15  NormThresh=1.00e-06  ReorthogonThresh=1.00e-02

      Roots     MaxVec    MaxIter   Precond   Conv      Shift    
      1         120       60        1         1.00e-05  0.00e+00  
 ------------------------------------------------------------------------------
      Iter ConvRoots NVecs ResNorm^2 Current eigenvalues (eV)
 ------------------------------------------------------------------------------
      0    0      1     1.00e-03   -13.5132   
      1    0      2     4.21e-04   -13.5134   
      2    0      3     2.05e-05   -13.5135   
      3    1      4     3.94e-06   -13.5135*  

     Davidson procedure converged

 EOMDEA-CCSD calculation:   CPU 70.62 s  wall 15.24 s


 Start computing the transition properties

 ------------------------------------------------------------------------------
 State A: eomdea_ccsd/rhfref/singlets: 1/A1
 State B: eomdea_ccsd/rhfref/singlets: 1/B1
 Energy GAP = 0.1098 a.u. = 2.9884 eV
 Transition dipole moment (a.u.):
   A->B: 2.045067 (X -2.045067, Y 0.000000, Z 0.000000)
   B->A: 2.073559 (X -2.073559, Y 0.000000, Z 0.000000)
 Oscillator strength (a.u.): 0.310468
 Transition angular momentum against gauge origin (a.u.):
   A->B:  (X 0.000000i, Y -0.013609i, Z 0.000000i)
   B->A:  (X 0.000000i, Y 0.013806i, Z 0.000000i)
 Norm of one-particle transition density matrix:
   A->B: 0.713089;   B->A: 0.709377
   ||gamma^AB||*||gamma^BA||: 0.505849

 ------------------------------------------------------------------------------
 State A: eomdea_ccsd/rhfref/singlets: 1/A1
 State B: eomdea_ccsd/rhfref/singlets: 1/B2
 Energy GAP = 0.109821 a.u. = 2.988377 eV
 Transition dipole moment (a.u.):
   A->B: 2.045067 (X 0.000000, Y 2.045067, Z 0.000000)
   B->A: 2.073559 (X 0.000000, Y 2.073559, Z 0.000000)
 Oscillator strength (a.u.): 0.310468
 Transition angular momentum against gauge origin (a.u.):
   A->B:  (X -0.013609i, Y 0.000000i, Z 0.000000i)
   B->A:  (X 0.013806i, Y 0.000000i, Z 0.000000i)
 Norm of one-particle transition density matrix:
   A->B: 0.713089;   B->A: 0.709377
   ||gamma^AB||*||gamma^BA||: 0.505849

 ------------------------------------------------------------------------------
 State A: eomdea_ccsd/rhfref/singlets: 1/B1
 State B: eomdea_ccsd/rhfref/singlets: 1/B2
 Energy GAP = 0.000000 a.u. = 0.000000 eV
 Transition dipole moment (a.u.):
   A->B: 0.000000 (X 0.000000, Y 0.000000, Z 0.000000)
   B->A: 0.000000 (X 0.000000, Y 0.000000, Z 0.000000)
 Oscillator strength (a.u.): 0.000000
 Transition angular momentum against gauge origin (a.u.):
   A->B:  (X 0.000000i, Y 0.000000i, Z -1.000000i)
   B->A:  (X 0.000000i, Y 0.000000i, Z 1.000000i)
 Norm of one-particle transition density matrix:
   A->B: 0.504756;   B->A: 0.504756
   ||gamma^AB||*||gamma^BA||: 0.254778

 ------------------------------------------------------------------------------
 State A: eomdea_ccsd/rhfref/singlets: 1/A1
 State B: eomdea_ccsd/rhfref/triplets: 1/A1
 Energy GAP = 0.000739 a.u. = 0.020117 eV
 Transition dipole moment (a.u.):
   A->B: 0.000000 (X 0.000000, Y 0.000000, Z 0.000000)
   B->A: 0.000000 (X 0.000000, Y 0.000000, Z 0.000000)
 Oscillator strength (a.u.): 0.000000
 Transition angular momentum against gauge origin (a.u.):
   A->B:  (X 0.000000i, Y 0.000000i, Z 0.000000i)
   B->A:  (X 0.000000i, Y 0.000000i, Z 0.000000i)
 Norm of one-particle transition density matrix:
   A->B: 0.991438;   B->A: 0.991614
   ||gamma^AB||*||gamma^BA||: 0.983124

 ------------------------------------------------------------------------------
 State A: eomdea_ccsd/rhfref/singlets: 1/A1
 State B: eomdea_ccsd/rhfref/triplets: 1/B1
 Energy GAP = 0.105581 a.u. = 2.872996 eV
 Transition dipole moment (a.u.):
   A->B: 0.000000 (X 0.000000, Y 0.000000, Z 0.000000)
   B->A: 0.000000 (X 0.000000, Y 0.000000, Z 0.000000)
 Oscillator strength (a.u.): 0.000000
 Transition angular momentum against gauge origin (a.u.):
   A->B:  (X 0.000000i, Y 0.000000i, Z 0.000000i)
   B->A:  (X 0.000000i, Y 0.000000i, Z 0.000000i)
 Norm of one-particle transition density matrix:
   A->B: 0.714265;   B->A: 0.715263
   ||gamma^AB||*||gamma^BA||: 0.510888

 ------------------------------------------------------------------------------
 State A: eomdea_ccsd/rhfref/singlets: 1/A1
 State B: eomdea_ccsd/rhfref/triplets: 1/B2
 Energy GAP = 0.105581 a.u. = 2.872996 eV
 Transition dipole moment (a.u.):
   A->B: 0.000000 (X 0.000000, Y 0.000000, Z 0.000000)
   B->A: 0.000000 (X 0.000000, Y 0.000000, Z 0.000000)
 Oscillator strength (a.u.): 0.000000
 Transition angular momentum against gauge origin (a.u.):
   A->B:  (X 0.000000i, Y 0.000000i, Z 0.000000i)
   B->A:  (X 0.000000i, Y 0.000000i, Z 0.000000i)
 Norm of one-particle transition density matrix:
   A->B: 0.714265;   B->A: 0.715263
   ||gamma^AB||*||gamma^BA||: 0.510888

 ------------------------------------------------------------------------------
 State A: eomdea_ccsd/rhfref/singlets: 1/B1
 State B: eomdea_ccsd/rhfref/triplets: 1/A1
 Energy GAP = 0.109081 a.u. = 2.968260 eV
 Transition dipole moment (a.u.):
   A->B: 0.000000 (X 0.000000, Y 0.000000, Z 0.000000)
   B->A: 0.000000 (X 0.000000, Y 0.000000, Z 0.000000)
 Oscillator strength (a.u.): 0.000000
 Transition angular momentum against gauge origin (a.u.):
   A->B:  (X 0.000000i, Y 0.000000i, Z 0.000000i)
   B->A:  (X 0.000000i, Y 0.000000i, Z 0.000000i)
 Norm of one-particle transition density matrix:
   A->B: 0.695906;   B->A: 0.697536
   ||gamma^AB||*||gamma^BA||: 0.485419

 ------------------------------------------------------------------------------
 State A: eomdea_ccsd/rhfref/singlets: 1/B1
 State B: eomdea_ccsd/rhfref/triplets: 1/B1
 Energy GAP = 0.004240 a.u. = 0.115382 eV
 Transition dipole moment (a.u.):
   A->B: 0.000000 (X 0.000000, Y 0.000000, Z 0.000000)
   B->A: 0.000000 (X 0.000000, Y 0.000000, Z 0.000000)
 Oscillator strength (a.u.): 0.000000
 Transition angular momentum against gauge origin (a.u.):
   A->B:  (X 0.000000i, Y 0.000000i, Z 0.000000i)
   B->A:  (X 0.000000i, Y 0.000000i, Z 0.000000i)
 Norm of one-particle transition density matrix:
   A->B: 0.724552;   B->A: 0.724985
   ||gamma^AB||*||gamma^BA||: 0.525289

 ------------------------------------------------------------------------------
 State A: eomdea_ccsd/rhfref/singlets: 1/B1
 State B: eomdea_ccsd/rhfref/triplets: 1/B2
 Energy GAP = 0.004240 a.u. = 0.115382 eV
 Transition dipole moment (a.u.):
   A->B: 0.000000 (X 0.000000, Y 0.000000, Z 0.000000)
   B->A: 0.000000 (X 0.000000, Y 0.000000, Z 0.000000)
 Oscillator strength (a.u.): 0.000000
 Transition angular momentum against gauge origin (a.u.):
   A->B:  (X 0.000000i, Y 0.000000i, Z 0.000000i)
   B->A:  (X 0.000000i, Y 0.000000i, Z 0.000000i)
 Norm of one-particle transition density matrix:
   A->B: 0.510969;   B->A: 0.511336
   ||gamma^AB||*||gamma^BA||: 0.261277

 ------------------------------------------------------------------------------
 State A: eomdea_ccsd/rhfref/singlets: 1/B2
 State B: eomdea_ccsd/rhfref/triplets: 1/A1
 Energy GAP = 0.109081 a.u. = 2.968260 eV
 Transition dipole moment (a.u.):
   A->B: 0.000000 (X 0.000000, Y 0.000000, Z 0.000000)
   B->A: 0.000000 (X 0.000000, Y 0.000000, Z 0.000000)
 Oscillator strength (a.u.): 0.000000
 Transition angular momentum against gauge origin (a.u.):
   A->B:  (X 0.000000i, Y 0.000000i, Z 0.000000i)
   B->A:  (X 0.000000i, Y 0.000000i, Z 0.000000i)
 Norm of one-particle transition density matrix:
   A->B: 0.695906;   B->A: 0.697536
   ||gamma^AB||*||gamma^BA||: 0.485419

 ------------------------------------------------------------------------------
 State A: eomdea_ccsd/rhfref/singlets: 1/B2
 State B: eomdea_ccsd/rhfref/triplets: 1/B1
 Energy GAP = 0.004240 a.u. = 0.115382 eV
 Transition dipole moment (a.u.):
   A->B: 0.000000 (X 0.000000, Y 0.000000, Z 0.000000)
   B->A: 0.000000 (X 0.000000, Y 0.000000, Z 0.000000)
 Oscillator strength (a.u.): 0.000000
 Transition angular momentum against gauge origin (a.u.):
   A->B:  (X 0.000000i, Y 0.000000i, Z 0.000000i)
   B->A:  (X 0.000000i, Y 0.000000i, Z 0.000000i)
 Norm of one-particle transition density matrix:
   A->B: 0.510969;   B->A: 0.511336
   ||gamma^AB||*||gamma^BA||: 0.261277

 ------------------------------------------------------------------------------
 State A: eomdea_ccsd/rhfref/singlets: 1/B2
 State B: eomdea_ccsd/rhfref/triplets: 1/B2
 Energy GAP = 0.004240 a.u. = 0.115382 eV
 Transition dipole moment (a.u.):
   A->B: 0.000000 (X 0.000000, Y 0.000000, Z 0.000000)
   B->A: 0.000000 (X 0.000000, Y 0.000000, Z 0.000000)
 Oscillator strength (a.u.): 0.000000
 Transition angular momentum against gauge origin (a.u.):
   A->B:  (X 0.000000i, Y 0.000000i, Z 0.000000i)
   B->A:  (X 0.000000i, Y 0.000000i, Z 0.000000i)
 Norm of one-particle transition density matrix:
   A->B: 0.724552;   B->A: 0.724985
   ||gamma^AB||*||gamma^BA||: 0.525289

 ------------------------------------------------------------------------------
 State A: eomdea_ccsd/rhfref/triplets: 1/A1
 State B: eomdea_ccsd/rhfref/triplets: 1/B1
 Energy GAP = 0.104841 a.u. = 2.852878 eV
 Transition dipole moment (a.u.):
   A->B: 0.001865 (X 0.001865, Y 0.000000, Z 0.000000)
   B->A: 0.001878 (X 0.001878, Y 0.000000, Z 0.000000)
 Oscillator strength (a.u.): 0.000000
 Transition angular momentum against gauge origin (a.u.):
   A->B:  (X 0.000000i, Y 1.930467i, Z 0.000000i)
   B->A:  (X 0.000000i, Y -1.954491i, Z 0.000000i)
 Norm of one-particle transition density matrix:
   A->B: 0.704040;   B->A: 0.697479
   ||gamma^AB||*||gamma^BA||: 0.491053

 ------------------------------------------------------------------------------
 State A: eomdea_ccsd/rhfref/triplets: 1/A1
 State B: eomdea_ccsd/rhfref/triplets: 1/B2
 Energy GAP = 0.104841 a.u. = 2.852878 eV
 Transition dipole moment (a.u.):
   A->B: 0.001865 (X 0.000000, Y -0.001865, Z 0.000000)
   B->A: 0.001878 (X 0.000000, Y -0.001878, Z 0.000000)
 Oscillator strength (a.u.): 0.000000
 Transition angular momentum against gauge origin (a.u.):
   A->B:  (X 1.930467i, Y 0.000000i, Z 0.000000i)
   B->A:  (X -1.954491i, Y 0.000000i, Z 0.000000i)
 Norm of one-particle transition density matrix:
   A->B: 0.704040;   B->A: 0.697479
   ||gamma^AB||*||gamma^BA||: 0.491053

 ------------------------------------------------------------------------------
 State A: eomdea_ccsd/rhfref/triplets: 1/B1
 State B: eomdea_ccsd/rhfref/triplets: 1/B2
 Energy GAP = 0.000000 a.u. = 0.000000 eV
 Transition dipole moment (a.u.):
   A->B: 0.000000 (X 0.000000, Y 0.000000, Z 0.000000)
   B->A: 0.000000 (X 0.000000, Y 0.000000, Z 0.000000)
 Oscillator strength (a.u.): 0.000000
 Transition angular momentum against gauge origin (a.u.):
   A->B:  (X 0.000000i, Y 0.000000i, Z -1.000000i)
   B->A:  (X 0.000000i, Y 0.000000i, Z 1.000000i)
 Norm of one-particle transition density matrix:
   A->B: 0.533271;   B->A: 0.533271
   ||gamma^AB||*||gamma^BA||: 0.284378


 All requested transition properties have been computed

 Transition Properties:   CPU 19.05 s  wall 6.00 s

 Total ccman2 time:   CPU 133.41 s  wall 31.05 s


 --------------------------------------------------------------
             Orbital Energies (a.u.) and Symmetries
 --------------------------------------------------------------

 Alpha MOs, Restricted
 -- Occupied --                  
-49.466 -49.466 -11.484 -11.481  -4.199  -4.199  -2.720  -2.720
  1 A1    2 A1    3 A1    4 A1    5 A1    6 A1    1 B1    1 B2                 
 -2.720  -2.720  -2.717  -2.717  -1.229  -0.836  -0.733  -0.626
  2 B1    2 B2    7 A1    8 A1    9 A1   10 A1   11 A1    3 B1                 
 -0.626
  3 B2                                                                         
 -- Virtual --                   
 -0.339  -0.330  -0.238  -0.238  -0.216  -0.216  -0.138  -0.133
 12 A1   13 A1    4 B1    4 B2    5 B1    5 B2   14 A1   15 A1                 
 -0.087  -0.076  -0.069  -0.069  -0.031  -0.031   0.001   0.001
 16 A1   17 A1    6 B1    6 B2    7 B1    7 B2    8 B1    8 B2                 
  0.014   0.068   0.081   0.081   0.081   0.081   0.126   0.126
 18 A1   19 A1   20 A1    1 A2   21 A1    2 A2    9 B1    9 B2                 
  0.249   0.249   0.328   0.391   0.608   0.608   0.661   0.663
 10 B1   10 B2   22 A1   23 A1   11 B1   11 B2   24 A1   25 A1                 
  0.685   0.747   0.830   0.830   1.179   1.268   1.525   1.602
 26 A1   27 A1   12 B1   12 B2   28 A1   29 A1   30 A1   31 A1                 
  1.602   1.609   1.609   1.996   1.996   2.304   2.575   2.575
  3 A2   13 B1   13 B2   32 A1    4 A2   33 A1   14 B1   14 B2                 
  3.110   4.252   4.372
 34 A1   35 A1   36 A1                                                         

 Beta MOs, Restricted
 -- Occupied --                  
-49.466 -49.466 -11.484 -11.481  -4.199  -4.199  -2.720  -2.720
  1 A1    2 A1    3 A1    4 A1    5 A1    6 A1    1 B1    1 B2                 
 -2.720  -2.720  -2.717  -2.717  -1.229  -0.836  -0.733  -0.626
  2 B1    2 B2    7 A1    8 A1    9 A1   10 A1   11 A1    3 B1                 
 -0.626
  3 B2                                                                         
 -- Virtual --                   
 -0.339  -0.330  -0.238  -0.238  -0.216  -0.216  -0.138  -0.133
 12 A1   13 A1    4 B1    4 B2    5 B1    5 B2   14 A1   15 A1                 
 -0.087  -0.076  -0.069  -0.069  -0.031  -0.031   0.001   0.001
 16 A1   17 A1    6 B1    6 B2    7 B1    7 B2    8 B1    8 B2                 
  0.014   0.068   0.081   0.081   0.081   0.081   0.126   0.126
 18 A1   19 A1   20 A1    1 A2   21 A1    2 A2    9 B1    9 B2                 
  0.249   0.249   0.328   0.391   0.608   0.608   0.661   0.663
 10 B1   10 B2   22 A1   23 A1   11 B1   11 B2   24 A1   25 A1                 
  0.685   0.747   0.830   0.830   1.179   1.268   1.525   1.602
 26 A1   27 A1   12 B1   12 B2   28 A1   29 A1   30 A1   31 A1                 
  1.602   1.609   1.609   1.996   1.996   2.304   2.575   2.575
  3 A2   13 B1   13 B2   32 A1    4 A2   33 A1   14 B1   14 B2                 
  3.110   4.252   4.372
 34 A1   35 A1   36 A1                                                         
 --------------------------------------------------------------

          Ground-State Mulliken Net Atomic Charges

     Atom                 Charge (a.u.)
  ----------------------------------------
      1 Mg                    1.277030
      2 C                    -0.277087
      3 C                    -0.277157
      4 Mg                    1.277214
  ----------------------------------------
  Sum of atomic charges =     2.000000

 -----------------------------------------------------------------
                    Cartesian Multipole Moments
 -----------------------------------------------------------------
    Charge (ESU x 10^10)
                 9.6064
    Dipole Moment (Debye)
         X      -0.0000      Y      -0.0000      Z       0.0032
       Tot       0.0032
    Quadrupole Moments (Debye-Ang)
        XX     -21.8069     XY      -0.0000     YY     -21.8069
        XZ      -0.0000     YZ      -0.0000     ZZ      99.3606
    Octopole Moments (Debye-Ang^2)
       XXX      -0.0000    XXY      -0.0000    XYY       0.0000
       YYY      -0.0000    XXZ       0.0026    XYZ       0.0000
       YYZ       0.0026    XZZ       0.0000    YZZ      -0.0000
       ZZZ       0.0463
    Hexadecapole Moments (Debye-Ang^3)
      XXXX     -26.1933   XXXY      -0.0000   XXYY      -8.7311
      XYYY      -0.0000   YYYY     -26.1933   XXXZ      -0.0000
      XXYZ      -0.0000   XYYZ      -0.0000   YYYZ      -0.0000
      XXZZ     -60.5859   XYZZ      -0.0000   YYZZ     -60.5859
      XZZZ      -0.0000   YZZZ      -0.0000   ZZZZ     680.7570
 -----------------------------------------------------------------
 Total job time:  35.15s(wall), 143.89s(cpu) 
 Tue Jan 31 11:32:29 2023

        *************************************************************
        *                                                           *
        *  Thank you very much for using Q-Chem.  Have a nice day.  *
        *                                                           *
        *************************************************************


